/*--------------------------------*- C++ -*----------------------------------*\
| =========                 |                                                 |
| \\      /  F ield         | OpenFOAM: The Open Source CFD Toolbox           |
|  \\    /   O peration     | Version:  2412                                  |
|   \\  /    A nd           | Website:  www.openfoam.com                      |
|    \\/     M anipulation  |                                                 |
\*---------------------------------------------------------------------------*/
FoamFile
{
    version     2.0;
    format      ascii;
    arch        "LSB;label=32;scalar=64";
    class       volScalarField;
    location    "5";
    object      alpha5;
}
// * * * * * * * * * * * * * * * * * * * * * * * * * * * * * * * * * * * * * //

dimensions      [0 0 0 0 0 0 0];

internalField   nonuniform List<scalar> 
47360
(
2.06132e-14
4.7222e-14
1.36907e-13
4.07326e-13
1.21229e-12
3.59863e-12
1.0646e-11
3.13646e-11
9.19651e-11
2.68283e-10
7.78587e-10
2.24646e-09
6.43061e-09
1.81817e-08
5.04383e-08
1.36213e-07
3.5532e-07
8.89132e-07
2.12271e-06
4.81571e-06
1.03547e-05
2.10698e-05
4.05463e-05
7.3793e-05
0.000127091
0.000207352
0.000320966
0.000472329
0.000662417
0.000888087
0.00114216
0.00141483
0.0016951
0.00197323
0.00224042
0.00249142
0.00272044
0.00292791
0.00309458
0.00330598
2.05645e-14
4.71111e-14
1.36596e-13
4.06429e-13
1.20969e-12
3.59123e-12
1.06256e-11
3.13102e-11
9.18263e-11
2.67944e-10
7.77807e-10
2.24485e-09
6.42773e-09
1.81769e-08
5.04311e-08
1.36196e-07
3.55241e-07
8.88768e-07
2.12114e-06
4.81045e-06
1.034e-05
2.10314e-05
4.04594e-05
7.36139e-05
0.000126762
0.000206793
0.000320121
0.00047112
0.000660894
0.000886244
0.0011402
0.00141281
0.00169335
0.00197166
0.00223943
0.00249069
0.00272026
0.00292826
0.00309532
0.00330726
2.05912e-14
4.71717e-14
1.36769e-13
4.06947e-13
1.21126e-12
3.59596e-12
1.064e-11
3.13556e-11
9.19738e-11
2.68435e-10
7.79456e-10
2.25032e-09
6.44535e-09
1.82309e-08
5.05853e-08
1.36596e-07
3.56163e-07
8.9053e-07
2.12382e-06
4.81174e-06
1.03321e-05
2.09957e-05
4.03512e-05
7.33572e-05
0.000126241
0.000205858
0.000318616
0.000468926
0.000657992
0.000882721
0.00113633
0.00140887
0.00168981
0.0019687
0.00223756
0.00248979
0.00272061
0.00292985
0.0030981
0.00331151
2.05956e-14
4.71824e-14
1.36805e-13
4.07088e-13
1.21192e-12
3.599e-12
1.06534e-11
3.14109e-11
9.21925e-11
2.69263e-10
7.82463e-10
2.2608e-09
6.48014e-09
1.83398e-08
5.09025e-08
1.37443e-07
3.58204e-07
8.94859e-07
2.13152e-06
4.82249e-06
1.03382e-05
2.09733e-05
4.02523e-05
7.30778e-05
0.000125624
0.000204695
0.000316691
0.000466066
0.000654158
0.000878045
0.00113115
0.00140364
0.00168506
0.00196489
0.00223506
0.00248881
0.00272125
0.00293209
0.00310188
0.00331714
2.0593e-14
4.7176e-14
1.36782e-13
4.07063e-13
1.21216e-12
3.6016e-12
1.06696e-11
3.14887e-11
9.2522e-11
2.70555e-10
7.87245e-10
2.27765e-09
6.53651e-09
1.8518e-08
5.14294e-08
1.38884e-07
3.61799e-07
9.02932e-07
2.14751e-06
4.84937e-06
1.03742e-05
2.1e-05
4.02129e-05
7.28745e-05
0.000125094
0.00020359
0.000314749
0.000463067
0.000650042
0.000872968
0.00112552
0.00139801
0.0016801
0.00196118
0.00223306
0.00248879
0.00272335
0.00293618
0.00310792
0.00332541
2.05592e-14
4.70985e-14
1.3656e-13
4.0644e-13
1.21069e-12
3.59966e-12
1.06738e-11
3.15389e-11
9.28112e-11
2.71884e-10
7.92699e-10
2.29838e-09
6.61021e-09
1.87639e-08
5.2193e-08
1.41076e-07
3.67561e-07
9.16676e-07
2.17698e-06
4.90558e-06
1.04679e-05
2.11312e-05
4.03551e-05
7.29398e-05
0.000124919
0.000202962
0.00031342
0.000460823
0.000646769
0.000868739
0.00112069
0.00139315
0.00167587
0.00195821
0.00223191
0.00248975
0.00272671
0.00294181
0.00311581
0.00333584
2.0494e-14
4.695e-14
1.36151e-13
4.05328e-13
1.20793e-12
3.59362e-12
1.06666e-11
3.15667e-11
9.3088e-11
2.7341e-10
7.99627e-10
2.32648e-09
6.71526e-09
1.91288e-08
5.33673e-08
1.44564e-07
3.7706e-07
9.40272e-07
2.23025e-06
5.01459e-06
1.06698e-05
2.14682e-05
4.08591e-05
7.36037e-05
0.000125662
0.000203608
0.000313715
0.000460513
0.000645721
0.000867032
0.00111855
0.00139093
0.00167406
0.00195719
0.00223207
0.00249142
0.00273039
0.00294771
0.00312445
0.00334764
2.05376e-14
4.70478e-14
1.36429e-13
4.0618e-13
1.21085e-12
3.60484e-12
1.0712e-11
3.17536e-11
9.38583e-11
2.76515e-10
8.11846e-10
2.3727e-09
6.8831e-09
1.97061e-08
5.52354e-08
1.50187e-07
3.92693e-07
9.80205e-07
2.32369e-06
5.21544e-06
1.10642e-05
2.21761e-05
4.20161e-05
7.53277e-05
0.000127976
0.000206368
0.000316593
0.000463008
0.000647183
0.000866849
0.00111629
0.00138643
0.00166763
0.0019495
0.00222414
0.00248436
0.00272565
0.00294599
0.00312712
0.00335534
2.05022e-14
4.6968e-14
1.36213e-13
4.0579e-13
1.21081e-12
3.60894e-12
1.07419e-11
3.19177e-11
9.46485e-11
2.80069e-10
8.26839e-10
2.43297e-09
7.1125e-09
2.0531e-08
5.80105e-08
1.58846e-07
4.17686e-07
1.04646e-06
2.48374e-06
5.565e-06
1.1756e-05
2.34063e-05
4.39811e-05
7.81409e-05
0.000131618
0.000210612
0.000320914
0.000466719
0.000649658
0.000867556
0.00111501
0.00138313
0.00166241
0.00194278
0.00221697
0.00247811
0.002722
0.00294478
0.00312908
0.00335687
2.0441e-14
4.68341e-14
1.35882e-13
4.05027e-13
1.2096e-12
3.61109e-12
1.07743e-11
3.21255e-11
9.57107e-11
2.84971e-10
8.47824e-10
2.51941e-09
7.44737e-09
2.1772e-08
6.22972e-08
1.72735e-07
4.58912e-07
1.15533e-06
2.73771e-06
6.09068e-06
1.27354e-05
2.50919e-05
4.67278e-05
8.24648e-05
0.000138287
0.000220805
0.000336317
0.000489255
0.000681001
0.000908502
0.00116521
0.00144096
0.00172514
0.00200692
0.0022787
0.00253256
0.00276526
0.00297263
0.00314343
0.00334776
2.04209e-14
4.6793e-14
1.35821e-13
4.04989e-13
1.21057e-12
3.61945e-12
1.08322e-11
3.24318e-11
9.72423e-11
2.91811e-10
8.7772e-10
2.64336e-09
7.94037e-09
2.36461e-08
6.90721e-08
1.95593e-07
5.2254e-07
1.31418e-06
3.10419e-06
6.91222e-06
1.46226e-05
2.95097e-05
5.68337e-05
0.000104099
0.000180263
0.000293819
0.000451009
0.000653339
0.000895073
0.0011635
0.00144411
0.00172281
0.00198754
0.00222935
0.00244887
0.00264773
0.00282761
0.00298509
0.00311826
0.00326359
2.0444e-14
4.68443e-14
1.36001e-13
4.05811e-13
1.21495e-12
3.64086e-12
1.09377e-11
3.29074e-11
9.94578e-11
3.01204e-10
9.19833e-10
2.81491e-09
8.66589e-09
2.64296e-08
8.02391e-08
2.28189e-07
6.19821e-07
1.64352e-06
4.83736e-06
1.48152e-05
4.00008e-05
9.10664e-05
0.000180035
0.000316468
0.000500926
0.00072607
0.000979945
0.00124733
0.00151017
0.00174938
0.00195527
0.00212858
0.00228155
0.00242017
0.00254401
0.00265197
0.00274815
0.00283193
0.00289856
0.00295769
2.05104e-14
4.70022e-14
1.36438e-13
4.07446e-13
1.22151e-12
3.67232e-12
1.10749e-11
3.35346e-11
1.02209e-10
3.13374e-10
9.74029e-10
3.04933e-09
9.67302e-09
3.091e-08
9.49789e-08
2.70922e-07
1.63224e-06
1.35642e-05
6.0162e-05
0.000161501
0.000318875
0.000525599
0.000772548
0.00103681
0.00129656
0.00153637
0.00173297
0.00188008
0.00200115
0.00210624
0.00218835
0.00223663
0.00226308
0.00228575
0.00230392
0.00232151
0.00234207
0.00237314
0.00241029
0.00249391
2.06497e-14
4.73332e-14
1.37353e-13
4.10629e-13
1.23145e-12
3.7121e-12
1.12239e-11
3.42532e-11
1.05225e-10
3.28055e-10
1.03894e-09
3.36336e-09
1.10178e-08
3.81402e-08
1.08726e-07
3.0931e-06
5.62564e-05
0.000229775
0.00049374
0.00077248
0.00104753
0.00131877
0.00153075
0.00167276
0.00180964
0.001934
0.00198258
0.00198162
0.00196556
0.00192337
0.0018609
0.00178585
0.00175777
0.00176798
0.00180474
0.0018735
0.00196552
0.00208016
0.002188
0.00238305
2.05975e-14
4.71829e-14
1.36941e-13
4.09169e-13
1.22936e-12
3.7114e-12
1.12871e-11
3.46697e-11
1.07942e-10
3.41878e-10
1.11548e-09
3.72814e-09
1.29508e-08
4.85658e-08
1.4657e-07
0.000158108
0.000601099
0.000927144
0.0011272
0.00130369
0.00150696
0.00170495
0.00171892
0.00171208
0.00165203
0.00150267
0.00136348
0.00134105
0.00134988
0.00139062
0.00146834
0.0015724
0.00168799
0.00179871
0.00189996
0.00200413
0.00210853
0.00222578
0.00232333
0.00250563
2.03269e-14
4.65704e-14
1.35318e-13
4.04444e-13
1.22028e-12
3.68953e-12
1.13234e-11
3.49901e-11
1.10773e-10
3.56901e-10
1.205e-09
4.16096e-09
1.58983e-08
6.09411e-08
2.18186e-07
0.00174931
0.00146805
0.00116657
0.00116771
0.00115387
0.00101785
0.000671713
0.000297269
0.000244218
0.000316838
0.000548286
0.000948331
0.0014067
0.0017535
0.00189133
0.00193586
0.00197382
0.0020252
0.00209732
0.00217956
0.00227398
0.00236591
0.00247411
0.0025513
0.00270875
2.02321e-14
4.6379e-14
1.34864e-13
4.03799e-13
1.22047e-12
3.70884e-12
1.14264e-11
3.56978e-11
1.14018e-10
3.76065e-10
1.29316e-09
4.72335e-09
1.8927e-08
7.75642e-08
3.21863e-07
0.0047376
1.31281e-06
0.000115042
0.000640411
0.00163427
0.00268357
0.00328957
0.00334641
0.00331603
0.00323337
0.00311596
0.00296907
0.00283538
0.00276419
0.00278587
0.00280079
0.00288753
2.03311e-14
4.66026e-14
1.35519e-13
4.06106e-13
1.22752e-12
3.74354e-12
1.15525e-11
3.63844e-11
1.17028e-10
3.92748e-10
1.37685e-09
5.24334e-09
2.15727e-08
9.46326e-08
3.89765e-07
0.00491648
4.32847e-06
0.000281658
0.0015141
0.00339683
0.0041414
0.00413748
0.00405152
0.0038463
0.00353782
0.00322194
0.00295457
0.00283796
0.00283431
0.0028721
0.00288112
0.00295684
2.02241e-14
4.63709e-14
1.3488e-13
4.04323e-13
1.22348e-12
3.73801e-12
1.15722e-11
3.66361e-11
1.18757e-10
4.03771e-10
1.43817e-09
5.64642e-09
2.39231e-08
1.0855e-07
4.56476e-07
0.00532251
5.28275e-06
0.000336973
0.00187099
0.00387
0.00417617
0.00408193
0.00387639
0.00355462
0.00318306
0.00289962
0.00277674
0.0027881
0.0028108
0.00288916
0.0028957
0.00296717
2.03879e-14
4.67351e-14
1.35882e-13
4.07252e-13
1.23258e-12
3.76626e-12
1.16752e-11
3.70053e-11
1.20427e-10
4.10901e-10
1.47679e-09
5.84845e-09
2.49428e-08
1.13964e-07
4.77526e-07
0.00528307
5.76027e-06
0.000367627
0.00208087
0.00408237
0.00420428
0.00404216
0.00372466
0.00331544
0.00292725
0.0027464
0.00273868
0.00276891
0.00280622
0.00289876
0.00289854
0.00296728
2.03873e-14
4.67336e-14
1.35878e-13
4.07239e-13
1.23253e-12
3.76612e-12
1.16748e-11
3.70038e-11
1.20422e-10
4.10883e-10
1.47672e-09
5.84814e-09
2.49413e-08
1.13957e-07
4.77492e-07
0.00528301
5.75973e-06
0.000367619
0.00208091
0.00408249
0.00420438
0.00404225
0.00372475
0.00331553
0.00292732
0.00274646
0.00273873
0.00276896
0.00280626
0.00289878
0.00289855
0.00296728
2.02226e-14
4.63674e-14
1.34871e-13
4.04289e-13
1.22341e-12
3.73787e-12
1.15716e-11
3.66346e-11
1.18753e-10
4.03754e-10
1.43812e-09
5.64576e-09
2.39251e-08
1.085e-07
4.56361e-07
0.00532235
5.28101e-06
0.000336946
0.00187106
0.0038703
0.00417652
0.00408226
0.00387668
0.00355486
0.00318323
0.00289973
0.0027768
0.00278814
0.00281082
0.00288914
0.00289564
0.00296707
2.0331e-14
4.66026e-14
1.3552e-13
4.06112e-13
1.22752e-12
3.74352e-12
1.1553e-11
3.63862e-11
1.17038e-10
3.92782e-10
1.37711e-09
5.2433e-09
2.15838e-08
9.4571e-08
3.89622e-07
0.00491633
4.32696e-06
0.000281638
0.0015142
0.00339724
0.00414186
0.00413792
0.0040519
0.00384662
0.00353809
0.0032222
0.00295484
0.00283817
0.00283451
0.00287232
0.00288133
0.00295698
2.02394e-14
4.63957e-14
1.34918e-13
4.03967e-13
1.22097e-12
3.71028e-12
1.14302e-11
3.57078e-11
1.14046e-10
3.7615e-10
1.29351e-09
4.72393e-09
1.89406e-08
7.75156e-08
3.21778e-07
0.00473746
1.31269e-06
0.000115054
0.000640538
0.00163469
0.00268423
0.00329012
0.00334685
0.00331646
0.00323378
0.00311634
0.00296941
0.00283571
0.00276454
0.00278623
0.00280115
0.00288786
2.03265e-14
4.65702e-14
1.35315e-13
4.04428e-13
1.22032e-12
3.68984e-12
1.13243e-11
3.4995e-11
1.10792e-10
3.56969e-10
1.20539e-09
4.16082e-09
1.5918e-08
6.08858e-08
2.18109e-07
0.00174921
0.00146796
0.0011665
0.00116763
0.00115383
0.00101805
0.000672244
0.000297682
0.000244348
0.000316772
0.00054786
0.000947735
0.00140631
0.00175354
0.00189164
0.00193623
0.00197419
0.00202557
0.00209771
0.00218
0.00227446
0.00236642
0.00247463
0.0025518
0.00270923
2.05844e-14
4.71527e-14
1.36854e-13
4.08923e-13
1.2286e-12
3.70877e-12
1.12814e-11
3.46546e-11
1.07917e-10
3.41815e-10
1.1156e-09
3.72724e-09
1.29636e-08
4.85345e-08
1.46511e-07
0.000158106
0.000601004
0.000927025
0.00112709
0.00130357
0.00150677
0.00170487
0.00171899
0.00171222
0.00165236
0.00150319
0.00136399
0.00134158
0.00135042
0.00139116
0.00146886
0.00157285
0.00168843
0.0017992
0.0019005
0.00200471
0.00210912
0.00222635
0.00232386
0.0025061
2.06468e-14
4.73269e-14
1.37335e-13
4.10557e-13
1.23132e-12
3.71199e-12
1.12229e-11
3.42507e-11
1.05221e-10
3.28064e-10
1.03907e-09
3.36333e-09
1.10241e-08
3.81332e-08
1.08678e-07
3.09255e-06
5.62467e-05
0.000229714
0.000493651
0.000772343
0.00104737
0.00131858
0.00153062
0.00167263
0.00180941
0.00193367
0.00198227
0.00198133
0.00196536
0.00192333
0.00186108
0.00178631
0.00175846
0.0017687
0.0018055
0.00187428
0.0019663
0.00208089
0.00218864
0.00238358
2.05133e-14
4.701e-14
1.3646e-13
4.07532e-13
1.22175e-12
3.67316e-12
1.10772e-11
3.35435e-11
1.02235e-10
3.13466e-10
9.74339e-10
3.05013e-09
9.67732e-09
3.09091e-08
9.50014e-08
2.70844e-07
1.63159e-06
1.35591e-05
6.01478e-05
0.000161466
0.00031883
0.000525531
0.000772443
0.00103666
0.00129638
0.00153611
0.00173267
0.00187972
0.00200066
0.00210562
0.00218762
0.00223594
0.00226249
0.00228534
0.00230372
0.00232165
0.00234258
0.00237401
0.00241135
0.00249512
2.04306e-14
4.68139e-14
1.35915e-13
4.05556e-13
1.2142e-12
3.63868e-12
1.09318e-11
3.28925e-11
9.94211e-11
3.01122e-10
9.19683e-10
2.81457e-09
8.66687e-09
2.6426e-08
8.02244e-08
2.28199e-07
6.19698e-07
1.6429e-06
4.83525e-06
1.48078e-05
3.99834e-05
9.10325e-05
0.000179974
0.000316371
0.000500789
0.000725882
0.000979687
0.00124698
0.00150972
0.00174883
0.00195463
0.00212781
0.00228062
0.00241908
0.00254286
0.00265087
0.00274725
0.00283134
0.00289835
0.00295832
2.04192e-14
4.67884e-14
1.3581e-13
4.04956e-13
1.21041e-12
3.61891e-12
1.08307e-11
3.24271e-11
9.72282e-11
2.91765e-10
8.77593e-10
2.64296e-09
7.93959e-09
2.36444e-08
6.90576e-08
1.95523e-07
5.22396e-07
1.31375e-06
3.10283e-06
6.90847e-06
1.46135e-05
2.94897e-05
5.67933e-05
0.000104024
0.000180136
0.000293622
0.000450721
0.000652945
0.000894569
0.00116288
0.00144338
0.00172194
0.00198651
0.00222817
0.00244751
0.00264621
0.002826
0.00298354
0.00311679
0.00326274
2.0449e-14
4.68538e-14
1.35933e-13
4.05175e-13
1.21012e-12
3.61258e-12
1.07788e-11
3.21379e-11
9.57454e-11
2.85066e-10
8.48075e-10
2.52001e-09
7.44861e-09
2.17741e-08
6.22977e-08
1.72717e-07
4.58781e-07
1.15485e-06
2.73645e-06
6.08756e-06
1.2728e-05
2.50758e-05
4.66955e-05
8.2405e-05
0.000138184
0.000220639
0.000336068
0.000488902
0.00068053
0.000907899
0.00116446
0.00144007
0.00172409
0.00200569
0.0022773
0.00253101
0.00276358
0.00297093
0.00314171
0.00334629
2.05033e-14
4.69709e-14
1.36225e-13
4.05831e-13
1.21097e-12
3.60957e-12
1.07439e-11
3.19248e-11
9.46727e-11
2.80149e-10
8.27082e-10
2.43363e-09
7.11407e-09
2.05338e-08
5.80131e-08
1.58838e-07
4.17621e-07
1.04617e-06
2.48277e-06
5.56223e-06
1.17493e-05
2.33918e-05
4.39526e-05
7.80891e-05
0.00013153
0.000210471
0.000320703
0.000466421
0.000649247
0.000867042
0.0011144
0.00138239
0.00166155
0.0019418
0.00221587
0.00247689
0.00272067
0.00294339
0.00312765
0.00335554
2.05337e-14
4.70393e-14
1.36403e-13
4.06113e-13
1.21068e-12
3.60435e-12
1.07109e-11
3.17515e-11
9.38563e-11
2.76522e-10
8.11897e-10
2.37289e-09
6.88357e-09
1.97067e-08
5.52336e-08
1.50171e-07
3.92619e-07
9.79944e-07
2.32291e-06
5.21331e-06
1.1059e-05
2.21645e-05
4.19923e-05
7.52835e-05
0.0001279
0.000206247
0.000316413
0.000462759
0.000646857
0.000866435
0.00111578
0.00138585
0.00166697
0.00194877
0.00222335
0.00248351
0.00272474
0.00294506
0.00312615
0.00335441
2.04887e-14
4.69382e-14
1.36118e-13
4.05238e-13
1.20764e-12
3.59296e-12
1.06652e-11
3.15616e-11
9.30752e-11
2.73377e-10
7.99547e-10
2.32629e-09
6.71479e-09
1.91272e-08
5.33614e-08
1.44541e-07
3.76979e-07
9.40013e-07
2.2295e-06
5.01266e-06
1.06652e-05
2.14584e-05
4.08396e-05
7.35673e-05
0.000125601
0.000203505
0.000313566
0.000460312
0.000645457
0.000866693
0.00111814
0.00139048
0.00167356
0.00195666
0.00223152
0.00249085
0.00272982
0.00294715
0.0031239
0.00334713
2.05615e-14
4.71039e-14
1.36576e-13
4.06498e-13
1.21085e-12
3.59985e-12
1.06743e-11
3.15416e-11
9.28188e-11
2.71908e-10
7.92765e-10
2.29855e-09
6.61057e-09
1.87644e-08
5.2192e-08
1.41066e-07
3.6751e-07
9.1649e-07
2.17641e-06
4.90404e-06
1.04642e-05
2.11233e-05
4.03373e-05
7.29078e-05
0.00012487
0.000202883
0.000313304
0.000460655
0.000646544
0.000868463
0.00112037
0.00139279
0.00167548
0.00195779
0.00223149
0.00248935
0.00272632
0.00294146
0.0031155
0.00333559
2.05921e-14
4.71741e-14
1.36775e-13
4.07033e-13
1.21214e-12
3.60167e-12
1.06695e-11
3.14887e-11
9.25222e-11
2.70558e-10
7.87256e-10
2.27769e-09
6.53659e-09
1.8518e-08
5.14277e-08
1.38874e-07
3.61757e-07
9.02782e-07
2.14704e-06
4.84826e-06
1.03709e-05
2.09925e-05
4.02023e-05
7.28522e-05
0.000125049
0.000203523
0.000314648
0.000462929
0.000649864
0.000872749
0.00112526
0.00139773
0.0016798
0.00196086
0.00223274
0.00248847
0.00272305
0.00293589
0.00310765
0.0033252
2.05923e-14
4.71747e-14
1.36786e-13
4.07039e-13
1.21176e-12
3.59851e-12
1.06519e-11
3.14066e-11
9.21801e-11
2.69227e-10
7.82361e-10
2.2605e-09
6.47925e-09
1.83371e-08
5.08942e-08
1.37418e-07
3.58131e-07
8.94652e-07
2.13105e-06
4.821e-06
1.03353e-05
2.09685e-05
4.02399e-05
7.30564e-05
0.000125589
0.000204641
0.000316612
0.000465957
0.000654017
0.000877872
0.00113095
0.00140342
0.00168483
0.00196465
0.00223482
0.00248857
0.00272102
0.00293188
0.00310169
0.003317
2.059e-14
4.7169e-14
1.36762e-13
4.06924e-13
1.2112e-12
3.59581e-12
1.06396e-11
3.13545e-11
9.19707e-11
2.68426e-10
7.79432e-10
2.25025e-09
6.44509e-09
1.82299e-08
5.05814e-08
1.36583e-07
3.56116e-07
8.90418e-07
2.12335e-06
4.81083e-06
1.03305e-05
2.09907e-05
4.03427e-05
7.33415e-05
0.000126214
0.000205815
0.000318553
0.000468841
0.000657883
0.00088259
0.00113618
0.00140871
0.00168964
0.00196853
0.00223739
0.00248962
0.00272044
0.00292967
0.00309792
0.00331132
2.05637e-14
4.71094e-14
1.36591e-13
4.06414e-13
1.20965e-12
3.59112e-12
1.06253e-11
3.13096e-11
9.18248e-11
2.67939e-10
7.77796e-10
2.2448e-09
6.42751e-09
1.81764e-08
5.04298e-08
1.36191e-07
3.55223e-07
8.88685e-07
2.121e-06
4.81009e-06
1.03386e-05
2.10288e-05
4.0454e-05
7.36037e-05
0.000126745
0.000206765
0.000320079
0.000471063
0.000660822
0.000886158
0.0011401
0.00141271
0.00169324
0.00197155
0.00223931
0.00249058
0.00272016
0.00292816
0.00309523
0.00330717
2.06136e-14
4.72227e-14
1.36909e-13
4.07333e-13
1.21231e-12
3.59868e-12
1.06462e-11
3.1365e-11
9.19667e-11
2.68288e-10
7.78597e-10
2.2465e-09
6.43071e-09
1.81815e-08
5.04371e-08
1.3621e-07
3.55312e-07
8.89113e-07
2.12264e-06
4.81552e-06
1.03543e-05
2.10689e-05
4.05444e-05
7.37895e-05
0.000127085
0.000207342
0.000320951
0.000472308
0.000662389
0.000888054
0.00114212
0.00141479
0.00169505
0.00197317
0.00224035
0.00249134
0.00272035
0.00292782
0.00309449
0.00330591
3.80086e-19
8.72271e-19
2.53606e-18
7.58101e-18
2.27186e-17
6.80649e-17
2.03779e-16
6.09448e-16
1.81989e-15
5.42306e-15
1.61173e-14
4.77485e-14
1.40946e-13
4.14378e-13
1.21275e-12
3.52954e-12
1.01956e-11
2.91382e-11
8.20558e-11
2.26636e-10
6.10995e-10
1.60073e-09
4.06e-09
9.93852e-09
2.34249e-08
5.30657e-08
1.15392e-07
2.40623e-07
4.80856e-07
9.20402e-07
1.68681e-06
2.95911e-06
4.96743e-06
7.97989e-06
1.22627e-05
1.80414e-05
2.5363e-05
3.43598e-05
4.35337e-05
5.97138e-05
3.80303e-19
8.72751e-19
2.53728e-18
7.58391e-18
2.27267e-17
6.80949e-17
2.03891e-16
6.09843e-16
1.82126e-15
5.42781e-15
1.61332e-14
4.77981e-14
1.41094e-13
4.14776e-13
1.21375e-12
3.53182e-12
1.01989e-11
2.91371e-11
8.20124e-11
2.26377e-10
6.09877e-10
1.59661e-09
4.04646e-09
9.89767e-09
2.33121e-08
5.27758e-08
1.14701e-07
2.39083e-07
4.77658e-07
9.14149e-07
1.67539e-06
2.93938e-06
4.93566e-06
7.93091e-06
1.21926e-05
1.79445e-05
2.52379e-05
3.42076e-05
4.33597e-05
5.95307e-05
3.79451e-19
8.70782e-19
2.5315e-18
7.56652e-18
2.26742e-17
6.79426e-17
2.03475e-16
6.08737e-16
1.81844e-15
5.42085e-15
1.61169e-14
4.77629e-14
1.41021e-13
4.14639e-13
1.21339e-12
3.53045e-12
1.01899e-11
2.90981e-11
8.18455e-11
2.25687e-10
6.07326e-10
1.58797e-09
4.01967e-09
9.82062e-09
2.31061e-08
5.22608e-08
1.13499e-07
2.36453e-07
4.72275e-07
9.03816e-07
1.65689e-06
2.90826e-06
4.88714e-06
7.85991e-06
1.20973e-05
1.78247e-05
2.51003e-05
3.40617e-05
4.32192e-05
5.9419e-05
3.79345e-19
8.70551e-19
2.53094e-18
7.56518e-18
2.26718e-17
6.79432e-17
2.03513e-16
6.09051e-16
1.82014e-15
5.42865e-15
1.61485e-14
4.78807e-14
1.41428e-13
4.15953e-13
1.21731e-12
3.54069e-12
1.02155e-11
2.91331e-11
8.18309e-11
2.2529e-10
6.05075e-10
1.57884e-09
3.98819e-09
9.72431e-09
2.28384e-08
5.15755e-08
1.11873e-07
2.32856e-07
4.64846e-07
8.89426e-07
1.63075e-06
2.86359e-06
4.81538e-06
7.75129e-06
1.19426e-05
1.76166e-05
2.48368e-05
3.37468e-05
4.28687e-05
5.90528e-05
3.79942e-19
8.71885e-19
2.53483e-18
7.57929e-18
2.27242e-17
6.81226e-17
2.04102e-16
6.1102e-16
1.82691e-15
5.45223e-15
1.62298e-14
4.81541e-14
1.42315e-13
4.1872e-13
1.22553e-12
3.56366e-12
1.02734e-11
2.92671e-11
8.20456e-11
2.25392e-10
6.03744e-10
1.57091e-09
3.95686e-09
9.62082e-09
2.25363e-08
5.07764e-08
1.09928e-07
2.28464e-07
4.55599e-07
8.7122e-07
1.59715e-06
2.80547e-06
4.7211e-06
7.60784e-06
1.17382e-05
1.73441e-05
2.44976e-05
3.3351e-05
4.2442e-05
5.86353e-05
3.80658e-19
8.73561e-19
2.54008e-18
7.59763e-18
2.27889e-17
6.83508e-17
2.04877e-16
6.13583e-16
1.83548e-15
5.4816e-15
1.63318e-14
4.85045e-14
1.43488e-13
4.2249e-13
1.23706e-12
3.59673e-12
1.036e-11
2.94698e-11
8.23993e-11
2.25697e-10
6.02423e-10
1.56117e-09
3.9163e-09
9.48469e-09
2.21369e-08
4.97177e-08
1.07353e-07
2.22665e-07
4.43444e-07
8.47426e-07
1.55356e-06
2.73056e-06
4.60032e-06
7.42498e-06
1.14783e-05
1.69969e-05
2.40627e-05
3.28381e-05
4.18799e-05
5.80629e-05
3.8048e-19
8.73205e-19
2.53914e-18
7.59348e-18
2.27816e-17
6.83816e-17
2.05207e-16
6.15332e-16
1.84295e-15
5.5107e-15
1.64408e-14
4.89011e-14
1.44879e-13
4.27161e-13
1.25189e-12
3.64078e-12
1.04806e-11
2.97569e-11
8.30109e-11
2.26384e-10
6.01753e-10
1.5519e-09
3.87331e-09
9.33436e-09
2.16858e-08
4.85068e-08
1.04393e-07
2.15994e-07
4.2949e-07
8.20177e-07
1.50378e-06
2.64528e-06
4.4632e-06
7.21794e-06
1.1185e-05
1.6607e-05
2.35774e-05
3.22694e-05
4.12637e-05
5.74446e-05
3.81288e-19
8.7501e-19
2.54384e-18
7.60651e-18
2.28187e-17
6.85153e-17
2.05827e-16
6.18206e-16
1.85535e-15
5.55982e-15
1.66249e-14
4.95595e-14
1.47156e-13
4.34739e-13
1.27602e-12
3.71363e-12
1.06852e-11
3.02821e-11
8.419e-11
2.28527e-10
6.0394e-10
1.54782e-09
3.83629e-09
9.18361e-09
2.12041e-08
4.71723e-08
1.01074e-07
2.08442e-07
4.13586e-07
7.88968e-07
1.44665e-06
2.5477e-06
4.30741e-06
6.98493e-06
1.08583e-05
1.61769e-05
2.30477e-05
3.16558e-05
4.06096e-05
5.67941e-05
3.80601e-19
8.73473e-19
2.5401e-18
7.59924e-18
2.28091e-17
6.85231e-17
2.05998e-16
6.19591e-16
1.86339e-15
5.59907e-15
1.67949e-14
5.02355e-14
1.49684e-13
4.43668e-13
1.3059e-12
3.80745e-12
1.09596e-11
3.1012e-11
8.58999e-11
2.32008e-10
6.0835e-10
1.54682e-09
3.80406e-09
9.03043e-09
2.06897e-08
4.57275e-08
9.74656e-08
2.00299e-07
3.96798e-07
7.57076e-07
1.39029e-06
2.45423e-06
4.16166e-06
6.77154e-06
1.05659e-05
1.58024e-05
2.26006e-05
3.11543e-05
4.00931e-05
5.63005e-05
3.8007e-19
8.72423e-19
2.53756e-18
7.59571e-18
2.28131e-17
6.86011e-17
2.06468e-16
6.22042e-16
1.875e-15
5.65205e-15
1.70217e-14
5.11548e-14
1.53219e-13
4.56576e-13
1.35036e-12
3.95225e-12
1.14005e-11
3.22277e-11
8.89225e-11
2.38481e-10
6.19867e-10
1.55955e-09
3.7952e-09
8.93674e-09
2.03589e-08
4.48365e-08
9.54012e-08
1.95903e-07
3.88012e-07
7.40652e-07
1.36168e-06
2.40833e-06
4.09474e-06
6.68385e-06
1.04653e-05
1.57044e-05
2.25303e-05
3.1134e-05
4.01463e-05
5.64298e-05
3.80265e-19
8.72891e-19
2.53883e-18
7.59837e-18
2.28314e-17
6.87386e-17
2.07276e-16
6.26044e-16
1.89338e-15
5.7322e-15
1.73569e-14
5.24976e-14
1.58424e-13
4.75814e-13
1.41834e-12
4.18268e-12
1.2098e-11
3.4127e-11
9.35387e-11
2.48525e-10
6.40513e-10
1.60087e-09
3.87997e-09
9.10958e-09
2.07042e-08
4.55346e-08
9.69106e-08
1.99398e-07
3.96274e-07
7.59329e-07
1.40116e-06
2.48581e-06
4.23656e-06
6.92523e-06
1.08478e-05
1.6269e-05
2.33086e-05
3.21363e-05
4.13396e-05
5.77502e-05
3.79921e-19
8.71989e-19
2.53686e-18
7.59302e-18
2.28296e-17
6.87945e-17
2.07932e-16
6.30001e-16
1.91442e-15
5.8297e-15
1.77876e-14
5.42585e-14
1.65627e-13
5.02387e-13
1.52397e-12
4.52055e-12
1.31426e-11
3.70799e-11
1.0202e-10
2.73467e-10
7.10497e-10
1.78467e-09
4.34249e-09
1.02541e-08
2.34941e-08
5.2156e-08
1.11983e-07
2.31978e-07
4.62691e-07
8.86695e-07
1.63111e-06
2.87729e-06
4.86558e-06
7.87908e-06
1.22142e-05
1.8114e-05
2.56512e-05
3.49335e-05
4.44344e-05
6.08882e-05
3.80869e-19
8.74147e-19
2.54413e-18
7.6212e-18
2.29396e-17
6.92e-17
2.09611e-16
6.36942e-16
1.9447e-15
5.96096e-15
1.83456e-14
5.65925e-14
1.75361e-13
5.4024e-13
1.66394e-12
4.97919e-12
1.71451e-11
8.57348e-11
3.60488e-10
1.01495e-09
2.17397e-09
4.17395e-09
8.123e-09
1.68443e-08
3.64292e-08
7.91015e-08
1.68013e-07
3.44043e-07
6.74784e-07
1.26465e-06
2.26616e-06
3.88638e-06
6.38421e-06
1.00462e-05
1.51399e-05
2.1846e-05
3.01247e-05
3.99886e-05
4.97357e-05
6.58772e-05
3.80744e-19
8.73973e-19
2.54402e-18
7.62696e-18
2.29853e-17
6.94792e-17
2.11084e-16
6.4401e-16
1.97742e-15
6.11741e-15
1.89966e-14
5.96914e-14
1.87169e-13
6.05343e-13
1.71807e-12
2.20622e-11
7.2926e-10
3.47451e-09
8.09866e-09
1.28322e-08
1.68564e-08
2.1291e-08
2.97086e-08
4.94483e-08
9.43809e-08
1.88429e-07
3.70755e-07
7.02964e-07
1.27725e-06
2.22471e-06
3.72583e-06
6.01034e-06
9.33953e-06
1.39739e-05
2.00937e-05
2.77843e-05
3.68158e-05
4.71366e-05
5.68537e-05
7.20548e-05
3.79652e-19
8.71525e-19
2.53717e-18
7.6125e-18
2.29654e-17
6.95775e-17
2.12218e-16
6.49714e-16
2.01336e-15
6.26833e-15
1.97924e-14
6.31708e-14
2.02516e-13
6.96874e-13
1.90602e-12
3.76165e-09
1.93842e-08
3.26883e-08
3.91777e-08
4.19792e-08
4.48018e-08
5.39202e-08
8.42323e-08
1.64367e-07
3.42102e-07
6.70333e-07
1.17677e-06
1.92209e-06
2.98468e-06
4.50718e-06
6.70621e-06
9.84625e-06
1.41782e-05
1.98983e-05
2.70405e-05
3.55642e-05
4.50417e-05
5.53825e-05
6.46085e-05
7.8263e-05
2.09924e-19
8.37185e-19
2.56075e-18
7.65746e-18
2.30612e-17
6.98996e-17
2.14126e-16
6.56715e-16
2.05657e-15
6.43378e-15
2.07447e-14
6.69122e-14
2.25305e-13
7.77958e-13
2.49092e-12
9.28694e-08
7.61079e-08
6.16064e-08
5.25692e-08
5.01766e-08
5.30445e-08
7.56457e-08
1.65656e-07
4.15296e-07
9.7442e-07
2.07283e-06
3.82909e-06
6.0435e-06
8.49135e-06
1.10776e-05
1.39237e-05
1.737e-05
2.18326e-05
2.7705e-05
3.50941e-05
4.39249e-05
5.3438e-05
6.34422e-05
7.17877e-05
8.35131e-05
2.04465e-19
8.24958e-19
2.54507e-18
7.6264e-18
2.30097e-17
6.98817e-17
2.14721e-16
6.62245e-16
2.0824e-15
6.60596e-15
2.14951e-14
7.13265e-14
2.46792e-13
8.91787e-13
3.43668e-12
3.62619e-07
1.42486e-08
1.88736e-06
1.16842e-05
3.34996e-05
5.32803e-05
5.61249e-05
5.42308e-05
4.90497e-05
4.37452e-05
4.3119e-05
4.5293e-05
5.09582e-05
5.92589e-05
6.90598e-05
7.7005e-05
8.73314e-05
3.79805e-19
8.72005e-19
2.53885e-18
7.62734e-18
2.30831e-17
7.0233e-17
2.16056e-16
6.7019e-16
2.1123e-15
6.78236e-15
2.22123e-14
7.54918e-14
2.64704e-13
9.99877e-13
4.00224e-12
3.96215e-07
5.54612e-08
4.36803e-06
2.56106e-05
6.02531e-05
7.21584e-05
7.04813e-05
6.32955e-05
5.26113e-05
4.63309e-05
4.64603e-05
4.92945e-05
5.57981e-05
6.44218e-05
7.39638e-05
8.09835e-05
8.97613e-05
3.77874e-19
8.6781e-19
2.5271e-18
7.59427e-18
2.29958e-17
7.00373e-17
2.15886e-16
6.71473e-16
2.12565e-15
6.86573e-15
2.26982e-14
7.81287e-14
2.78593e-13
1.08441e-12
4.50113e-12
4.53349e-07
7.51088e-08
5.38926e-06
3.10997e-05
6.84463e-05
7.55837e-05
7.20293e-05
6.17077e-05
5.0181e-05
4.63806e-05
4.74543e-05
5.16163e-05
5.92553e-05
6.81453e-05
7.72731e-05
8.34255e-05
9.11188e-05
3.78228e-19
8.68656e-19
2.52988e-18
7.60275e-18
2.30264e-17
7.01586e-17
2.16488e-16
6.74079e-16
2.13902e-15
6.92613e-15
2.30166e-14
7.95877e-14
2.8642e-13
1.12652e-12
4.73528e-12
4.70248e-07
8.56491e-08
5.92519e-06
3.38272e-05
7.18106e-05
7.72444e-05
7.24993e-05
6.05208e-05
4.91043e-05
4.65879e-05
4.81156e-05
5.29427e-05
6.10372e-05
6.98986e-05
7.87231e-05
8.44307e-05
9.16432e-05
3.78061e-19
8.68272e-19
2.52876e-18
7.59938e-18
2.30162e-17
7.01277e-17
2.16394e-16
6.73787e-16
2.13809e-15
6.92309e-15
2.30065e-14
7.95529e-14
2.86303e-13
1.12611e-12
4.73397e-12
4.70248e-07
8.56445e-08
5.92504e-06
3.38268e-05
7.18108e-05
7.72451e-05
7.25006e-05
6.05235e-05
4.9109e-05
4.65931e-05
4.81217e-05
5.29499e-05
6.10454e-05
6.9907e-05
7.87313e-05
8.44383e-05
9.16494e-05
3.77669e-19
8.67337e-19
2.52573e-18
7.59016e-18
2.29833e-17
7.00009e-17
2.15774e-16
6.71099e-16
2.12448e-15
6.86131e-15
2.26853e-14
7.80736e-14
2.78473e-13
1.08356e-12
4.49853e-12
4.53372e-07
7.50984e-08
5.38908e-06
3.10998e-05
6.8449e-05
7.55892e-05
7.20352e-05
6.17137e-05
5.01859e-05
4.63841e-05
4.74578e-05
5.16194e-05
5.92577e-05
6.81462e-05
7.72719e-05
8.34211e-05
9.11096e-05
3.79569e-19
8.71651e-19
2.53794e-18
7.6248e-18
2.30758e-17
7.02088e-17
2.15995e-16
6.69946e-16
2.11178e-15
6.77989e-15
2.22071e-14
7.54569e-14
2.6467e-13
9.99299e-13
3.99837e-12
3.96287e-07
5.54524e-08
4.36753e-06
2.56083e-05
6.0248e-05
7.21504e-05
7.04722e-05
6.32855e-05
5.25994e-05
4.63187e-05
4.64475e-05
4.92834e-05
5.57904e-05
6.44201e-05
7.39699e-05
8.09958e-05
8.97786e-05
3.79569e-19
8.7172e-19
2.53722e-18
7.62324e-18
2.30442e-17
6.99907e-17
2.15028e-16
6.63103e-16
2.08497e-15
6.61337e-15
2.1519e-14
7.13851e-14
2.47098e-13
8.91798e-13
3.43768e-12
3.62589e-07
1.42475e-08
1.88711e-06
1.1683e-05
3.34961e-05
5.32729e-05
5.61149e-05
5.42207e-05
4.90402e-05
4.37378e-05
4.31105e-05
4.52853e-05
5.09515e-05
5.92534e-05
6.90564e-05
7.70028e-05
8.7332e-05
3.80072e-19
8.7265e-19
2.54011e-18
7.62782e-18
2.30297e-17
6.98518e-17
2.14018e-16
6.56402e-16
2.05575e-15
6.43191e-15
2.07415e-14
6.6914e-14
2.25339e-13
7.78987e-13
2.48647e-12
9.29388e-08
7.61164e-08
6.16138e-08
5.25822e-08
5.01922e-08
5.30584e-08
7.56543e-08
1.65655e-07
4.15266e-07
9.74308e-07
2.07252e-06
3.82832e-06
6.04195e-06
8.48895e-06
1.10747e-05
1.39211e-05
1.73682e-05
2.1832e-05
2.77052e-05
3.50951e-05
4.39263e-05
5.34396e-05
6.34449e-05
7.17904e-05
8.3517e-05
3.79554e-19
8.71228e-19
2.53614e-18
7.60971e-18
2.29577e-17
6.95438e-17
2.12143e-16
6.49387e-16
2.01271e-15
6.26555e-15
1.97845e-14
6.31798e-14
2.02125e-13
7.00858e-13
1.89638e-12
3.77105e-09
1.93872e-08
3.26786e-08
3.91624e-08