/*--------------------------------*- C++ -*----------------------------------*\
| =========                 |                                                 |
| \\      /  F ield         | OpenFOAM: The Open Source CFD Toolbox           |
|  \\    /   O peration     | Version:  2412                                  |
|   \\  /    A nd           | Website:  www.openfoam.com                      |
|    \\/     M anipulation  |                                                 |
\*---------------------------------------------------------------------------*/
FoamFile
{
    version     2.0;
    format      ascii;
    arch        "LSB;label=32;scalar=64";
    class       volScalarField;
    location    "5";
    object      alpha2;
}
// * * * * * * * * * * * * * * * * * * * * * * * * * * * * * * * * * * * * * //

dimensions      [0 0 0 0 0 0 0];

internalField   nonuniform List<scalar> 
47360
(
9.88386e-14
2.25619e-13
6.494e-13
1.90993e-12
5.58975e-12
1.62229e-11
4.66316e-11
1.32613e-10
3.72891e-10
1.03624e-09
2.844e-09
7.69493e-09
2.04541e-08
5.31399e-08
1.34116e-07
3.26803e-07
7.64671e-07
1.7107e-06
3.64784e-06
7.39989e-06
1.42658e-05
2.61306e-05
4.54876e-05
7.53177e-05
0.000118744
0.000178552
0.000256508
0.000352954
0.000466347
0.000593706
0.000730757
0.000873104
0.00101637
0.00115741
0.00129329
0.00142197
0.00154164
0.00165226
0.00174341
0.00186296
9.87334e-14
2.25372e-13
6.48733e-13
1.90815e-12
5.58549e-12
1.62139e-11
4.66189e-11
1.32624e-10
3.73071e-10
1.0372e-09
2.84801e-09
7.70925e-09
2.05006e-08
5.32746e-08
1.34473e-07
3.2764e-07
7.6643e-07
1.71381e-06
3.65247e-06
7.40388e-06
1.42642e-05
2.61112e-05
4.54305e-05
7.51869e-05
0.00011852
0.000178191
0.000256055
0.0003524
0.000465886
0.000593396
0.000730884
0.000873751
0.00101782
0.0011596
0.00129643
0.00142603
0.00154654
0.00165792
0.00174971
0.00186996
9.87993e-14
2.25525e-13
6.49195e-13
1.90977e-12
5.59149e-12
1.6237e-11
4.67071e-11
1.32955e-10
3.74266e-10
1.04133e-09
2.86166e-09
7.75204e-09
2.06269e-08
5.36228e-08
1.35359e-07
3.29697e-07
7.70717e-07
1.72165e-06
3.66446e-06
7.41794e-06
1.42708e-05
2.60864e-05
4.53392e-05
7.49795e-05
0.000118136
0.000177599
0.000255277
0.000351554
0.000465202
0.000593178
0.00073155
0.000875612
0.00102129
0.00116475
0.00130341
0.00143483
0.00155708
0.00167003
0.00176317
0.00188493
9.87825e-14
2.25494e-13
6.49177e-13
1.91005e-12
5.59438e-12
1.62546e-11
4.67939e-11
1.33336e-10
3.75799e-10
1.04708e-09
2.88189e-09
7.819e-09
2.08344e-08
5.42202e-08
1.36949e-07
3.33565e-07
7.79274e-07
1.73863e-06
3.69441e-06
7.46363e-06
1.43287e-05
2.61398e-05
4.53505e-05
7.48918e-05
0.000117902
0.000177193
0.000254761
0.00035111
0.00046517
0.000594038
0.000733844
0.000879859
0.00102792
0.00117401
0.00131539
0.00144949
0.00157427
0.00168955
0.00178469
0.0019087
9.87415e-14
2.25404e-13
6.49002e-13
1.91016e-12
5.59774e-12
1.62783e-11
4.69177e-11
1.33898e-10
3.781e-10
1.0559e-09
2.91346e-09
7.92579e-09
2.11722e-08
5.52189e-08
1.39683e-07
3.40463e-07
7.95228e-07
1.77231e-06
3.75915e-06
7.57678e-06
1.45085e-05
2.63999e-05
4.56947e-05
7.53139e-05
0.000118398
0.0001778
0.000255601
0.000352445
0.000467426
0.000597782
0.000739737
0.000888547
0.00103995
0.00118974
0.00133501
0.00147288
0.00160125
0.00171976
0.00181775
0.00194469
9.88963e-14
2.2576e-13
6.50115e-13
1.9141e-12
5.61299e-12
1.63397e-11
4.71672e-11
1.3489e-10
3.81916e-10
1.07004e-09
2.96354e-09
8.09527e-09
2.17133e-08
5.68465e-08
1.44243e-07
3.5233e-07
8.2372e-07
1.83543e-06
3.88836e-06
7.82169e-06
1.49397e-05
2.71061e-05
4.67767e-05
7.68791e-05
0.000120573
0.000180746
0.000259566
0.000357794
0.000474686
0.000607615
0.000752942
0.00090596
0.00106241
0.00121782
0.00136895
0.00151246
0.00164607
0.00176882
0.00187042
0.00200009
9.90407e-14
2.2609e-13
6.51204e-13
1.91829e-12
5.63112e-12
1.64194e-11
4.75044e-11
1.36245e-10
3.87204e-10
1.08983e-09
3.03506e-09
8.34267e-09
2.2527e-08
5.93767e-08
1.51591e-07
3.72179e-07
8.73484e-07
1.95138e-06
4.1384e-06
8.31732e-06
1.58445e-05
2.8634e-05
4.91979e-05
8.05282e-05
0.00012587
0.000188235
0.000269973
0.000372023
0.00049372
0.000632378
0.000784055
0.000943465
0.00110558
0.00126493
0.0014177
0.00156095
0.00169368
0.00181505
0.00191595
0.00204272
9.95106e-14
2.27122e-13
6.53908e-13
1.92578e-12
5.65467e-12
1.65038e-11
4.78489e-11
1.37713e-10
3.93372e-10
1.11456e-09
3.1306e-09
8.69169e-09
2.37396e-08
6.33265e-08
1.63563e-07
4.06033e-07
9.62759e-07
2.16649e-06
4.60407e-06
9.23155e-06
1.75159e-05
3.15513e-05
5.41827e-05
8.89072e-05
0.000139554
0.000209521
0.000300872
0.000413463
0.000544894
0.000690294
0.000843829
0.000998997
0.00115024
0.00129511
0.00143431
0.00156632
0.00169026
0.0018044
0.00190079
0.00202271
9.86885e-14
2.2531e-13
6.48903e-13
1.91309e-12
5.62752e-12
1.64799e-11
4.79906e-11
1.39026e-10
4.00397e-10
1.14716e-09
3.26567e-09
9.2154e-09
2.56418e-08
6.97599e-08
1.83897e-07
4.66797e-07
1.12518e-06
2.54405e-06
5.40873e-06
1.0915e-05
2.11272e-05
3.94276e-05
7.06245e-05
0.000119982
0.000191422
0.000285801
0.000400479
0.000529139
0.000664719
0.000800684
0.000931073
0.00105446
0.0011746
0.00129144
0.00140441
0.0015126
0.00161621
0.00171385
0.00179931
0.00191134
9.69549e-14
2.2152e-13
6.39323e-13
1.8913e-12
5.58683e-12
1.6452e-11
4.82527e-11
1.41179e-10
4.11385e-10
1.19775e-09
3.47196e-09
1.0038e-08
2.86883e-08
8.04407e-08
2.20165e-07
5.76492e-07
1.40171e-06
3.22935e-06
7.34348e-06
1.71514e-05
3.94571e-05
8.26272e-05
0.000151617
0.000245319
0.000355918
0.000473427
0.000590216
0.000699663
0.000799172
0.000890294
0.000979405
0.00106693
0.00115112
0.00123174
0.00131081
0.001389
0.0014674
0.00154496
0.00161691
0.00171442
9.7005e-14
2.21583e-13
6.39912e-13
1.89511e-12
5.61516e-12
1.66071e-11
4.90726e-11
1.44931e-10
4.28322e-10
1.27055e-09
3.77436e-09
1.12935e-08
3.35128e-08
9.88135e-08
2.87771e-07
7.6455e-07
1.99708e-06
6.28662e-06
2.22665e-05
6.50042e-05
0.000143302
0.00024759
0.000360382
0.000468207
0.000561996
0.000641784
0.000710542
0.000775826
0.000839139
0.00089773
0.000949169
0.000995423
0.00104077
0.00108782
0.00113883
0.00119418
0.00125384
0.0013169
0.00137567
0.00145607
9.80837e-14
2.23936e-13
6.46606e-13
1.91505e-12
5.68803e-12
1.68786e-11
5.02982e-11
1.50009e-10
4.52032e-10
1.37034e-09
4.22389e-09
1.32091e-08
4.14126e-08
1.33358e-07
4.1365e-07
1.22174e-06
7.18328e-06
3.90146e-05
0.000122439
0.000245666
0.00036876
0.000465979
0.000538829
0.000590992
0.000636141
0.000678041
0.000717588
0.000748317
0.000771143
0.000790723
0.000811672
0.000836932
0.000868649
0.000907222
0.000952497
0.00100235
0.00105467
0.00110871
0.00115761
0.001236
9.86235e-14
2.25229e-13
6.50429e-13
1.93001e-12
5.75031e-12
1.71799e-11
5.17229e-11
1.56597e-10
4.83191e-10
1.50634e-09
4.87372e-09
1.60989e-08
5.49434e-08
2.04192e-07
6.8813e-07
5.86492e-06
6.12687e-05
0.000198129
0.00035831
0.000461981
0.000509258
0.000543223
0.000571936
0.000586687
0.000595167
0.000605839
0.000620924
0.000640009
0.000661696
0.000685856
0.000713297
0.000743836
0.00077784
0.000815477
0.000857238
0.000903393
0.000952949
0.00100783
0.00105832
0.00115153
1.00268e-13
2.2913e-13
6.61045e-13
1.96712e-12
5.86758e-12
1.76813e-11
5.36246e-11
1.65298e-10
5.20444e-10
1.67943e-09
5.75041e-09
2.03989e-08
8.01786e-08
3.64311e-07
1.56167e-06
5.73078e-05
0.000276574
0.000448081
0.000516234
0.000515811
0.000506269
0.000488617
0.000473648
0.000481924
0.000504826
0.000541174
0.000586187
0.000631387
0.000675468
0.000715472
0.000749838
0.000781158
0.000814562
0.000855002
0.000904565
0.000963305
0.00102532
0.00109239
0.00114648
0.00124463
1.02151e-13
2.32958e-13
6.71908e-13
1.99524e-12
5.96514e-12
1.80155e-11
5.50178e-11
1.72292e-10
5.55122e-10
1.87343e-09
6.89409e-09
2.68409e-08
1.3242e-07
7.14807e-07
4.09328e-06
0.000315248
0.000541273
0.000532706
0.000460321
0.000381906
0.000350228
0.0003685
0.000408433
0.000475339
0.000676363
0.000961598
0.00115066
0.00125088
0.00124474
0.00122404
0.00118871
0.00113987
0.00109413
0.00109581
0.00111427
0.0011552
0.00120606
0.00126941
0.00131141
0.00139955
9.82497e-14
2.24279e-13
6.48396e-13
1.93228e-12
5.81555e-12
1.77287e-11
5.50268e-11
1.76207e-10
5.86577e-10
2.10667e-09
8.29097e-09
3.74123e-08
2.25139e-07
1.37528e-06
9.49441e-06
0.000851711
0.000558814
0.000236489
7.75065e-05
0.000106884
0.000289778
0.000609569
0.00101813
0.00131171
0.00215074
0.00264834
0.00217782
0.00171722
0.00143161
0.00131099
0.00127542
0.00126953
0.00127276
0.00128942
0.0013173
0.00135892
0.00139516
0.00145468
0.00147038
0.00153134
9.54671e-14
2.18261e-13
6.3244e-13
1.89467e-12
5.7364e-12
1.76709e-11
5.56317e-11
1.82236e-10
6.26725e-10
2.37141e-09
9.98101e-09
5.23897e-08
3.46556e-07
2.3731e-06
1.58845e-05
0.00135354
0.00236262
0.00291821
0.00200257
0.00178822
0.0016396
0.0015512
0.00149805
0.00146597
0.001452
0.00146095
0.00147735
0.00150934
0.00152107
0.00155799
0.00152229
0.00156019
9.58069e-14
2.18972e-13
6.34921e-13
1.90253e-12
5.77917e-12
1.78866e-11
5.69103e-11
1.8903e-10
6.6832e-10
2.62278e-09
1.18542e-08
6.75006e-08
4.84983e-07
3.30841e-06
1.9374e-05
0.00148381
0.0027574
0.00296791
0.0021897
0.00194138
0.00175476
0.0016326
0.00156281
0.00152741
0.00151728
0.00152022
0.00152282
0.00153933
0.00152742
0.00155525
0.00148713
0.00153503
9.54693e-14
2.1838e-13
6.33536e-13
1.90143e-12
5.79053e-12
1.80151e-11
5.77485e-11
1.94345e-10
6.99697e-10
2.83555e-09
1.33411e-08
8.13295e-08
6.06271e-07
4.03539e-06
2.36183e-05
0.00161991
0.00283571
0.00287786
0.00207222
0.00180465
0.00164348
0.00155539
0.00151757
0.00150493
0.00150193
0.00150483
0.00150741
0.00152047
0.00149812
0.00153069
0.00142822
0.00149359
9.73845e-14
2.22585e-13
6.45206e-13
1.93426e-12
5.89075e-12
1.83315e-11
5.89024e-11
1.98809e-10
7.21818e-10
2.95273e-09
1.41821e-08
8.76599e-08
6.46975e-07
4.25146e-06
2.4119e-05
0.0015987
0.00295563
0.00283896
0.00201859
0.00173541
0.00158695
0.00151867
0.00149375
0.00148701
0.00148394
0.00148808
0.00149027
0.00149858
0.00146982
0.00150913
0.00138894
0.00147059
9.7399e-14
2.22618e-13
6.45299e-13
1.93453e-12
5.89156e-12
1.83339e-11
5.89097e-11
1.98831e-10
7.21895e-10
2.953e-09
1.41831e-08
8.7664e-08
6.46975e-07
4.25137e-06
2.41184e-05
0.00159868
0.00295567
0.00283901
0.00201863
0.00173543
0.00158696
0.00151867
0.00149375
0.00148701
0.00148393
0.00148807
0.00149025
0.00149855
0.00146979
0.0015091
0.00138891
0.00147056
9.54788e-14
2.18403e-13
6.3363e-13
1.90172e-12
5.79133e-12
1.80177e-11
5.7757e-11
1.94375e-10
6.99807e-10
2.83596e-09
1.33419e-08
8.13262e-08
6.06183e-07
4.03442e-06
2.36161e-05
0.00161988
0.00283584
0.00287805
0.00207237
0.00180477
0.00164357
0.00155545
0.00151761
0.00150495
0.00150194
0.00150482
0.00150739
0.00152043
0.00149806
0.00153062
0.00142814
0.00149351
9.57873e-14
2.1893e-13
6.34788e-13
1.90216e-12
5.77837e-12
1.78849e-11
5.69067e-11
1.89027e-10
6.68344e-10
2.623e-09
1.18553e-08
6.74953e-08
4.84928e-07
3.30655e-06
1.937e-05
0.00148378
0.00275762
0.00296828
0.00219005
0.00194166
0.001755
0.00163279
0.00156296
0.00152752
0.00151736
0.00152027
0.00152284
0.00153931
0.00152739
0.00155521
0.00148707
0.00153495
9.54655e-14
2.1826e-13
6.32438e-13
1.89458e-12
5.73666e-12
1.76725e-11
5.56325e-11
1.8224e-10
6.26783e-10
2.37162e-09
9.98189e-09
5.23878e-08
3.4647e-07
2.37166e-06
1.58818e-05
0.00135351
0.00236294
0.00291856
0.00200299
0.00178864
0.00164002
0.00155161
0.00149843
0.00146634
0.00145231
0.00146122
0.00147757
0.00150953
0.0015212
0.00155801
0.00152227
0.00156015
9.82402e-14
2.24259e-13
6.48366e-13
1.93218e-12
5.81515e-12
1.77283e-11
5.50261e-11
1.76219e-10
5.86631e-10
2.10707e-09
8.29196e-09
3.7413e-08
2.25129e-07
1.37359e-06
9.49075e-06
0.000851678
0.00055879
0.000236473
7.75026e-05
0.000106892
0.000289813
0.00060976
0.00101856
0.00131215
0.00215149
0.00264882
0.00217809
0.00171742
0.0014319
0.00131137
0.00127581
0.00126993
0.00127316
0.00128981
0.00131768
0.00135927
0.00139548
0.00145497
0.0014706
0.00153144
1.02141e-13
2.32937e-13
6.71847e-13
1.99518e-12
5.96457e-12
1.80143e-11
5.50248e-11
1.72309e-10
5.55177e-10
1.8736e-09
6.89516e-09
2.6839e-08
1.32473e-07
7.13456e-07
4.09153e-06
0.000315229
0.000541256
0.000532696
0.000460329
0.000381947
0.000350306
0.00036859
0.000408542
0.000475518
0.000676807
0.000962358
0.00115159
0.00125161
0.00124539
0.00122457
0.00118917
0.00114031
0.00109456
0.00109624
0.00111469
0.00115562
0.00120646
0.00126979
0.00131177
0.00139983
1.00508e-13
2.29676e-13
6.62601e-13
1.97158e-12
5.88013e-12
1.77149e-11
5.37112e-11
1.65526e-10
5.21071e-10
1.68094e-09
5.75445e-09
2.0404e-08
8.02371e-08
3.63611e-07
1.56047e-06
5.72743e-05
0.000276538
0.000448037
0.00051624
0.00051583
0.000506294
0.000488709
0.000473787
0.00048208
0.000505003
0.000541397
0.000586471
0.000631714
0.000675824
0.000715847
0.000750228
0.000781566
0.000814993
0.000855452
0.000905023
0.000963757
0.00102576
0.00109284
0.00114695
0.00124511
9.88194e-14
2.25687e-13
6.51787e-13
1.93428e-12
5.7638e-12
1.72229e-11
5.18585e-11
1.57014e-10
4.84451e-10
1.51001e-09
4.88382e-09
1.61232e-08
5.50251e-08
2.04104e-07
6.87601e-07
5.85981e-06
6.1244e-05
0.000198035
0.000358189
0.000461938
0.00050923
0.000543238
0.000571983
0.000586748
0.000595299
0.000605998
0.000621126
0.00064026
0.00066198
0.000686161
0.000713623
0.000744189
0.000778225
0.000815889
0.000857668
0.000903833
0.000953404
0.00100831
0.00105885
0.00115212
9.78496e-14
2.2341e-13
6.45137e-13
1.91093e-12
5.67691e-12
1.68498e-11
5.02305e-11
1.49876e-10
4.51873e-10
1.37068e-09
4.22685e-09
1.32218e-08
4.1463e-08
1.33427e-07
4.13807e-07
1.22118e-06
7.17904e-06
3.8989e-05
0.000122361
0.000245532
0.00036859
0.000465805
0.000538733
0.00059095
0.000636128
0.00067804
0.000717544
0.000748314
0.000771234
0.000790887
0.000811883
0.000837172
0.000868914
0.000907521
0.000952846
0.00100276
0.00105516
0.00110927
0.00115825
0.00123675
9.69482e-14
2.21458e-13
6.39533e-13
1.89374e-12
5.61046e-12
1.65911e-11
4.9018e-11
1.44757e-10
4.27791e-10
1.26912e-09
3.77092e-09
1.12864e-08
3.35055e-08
9.87921e-08
2.87746e-07
7.64614e-07
1.99652e-06
6.28218e-06
2.22472e-05
6.49548e-05
0.000143206
0.000247437
0.000360174
0.000467977
0.000561766
0.000641581
0.000710368
0.000775637
0.000838908
0.000897457
0.000948904
0.00099517
0.00104053
0.00108761
0.00113866
0.00119407
0.00125379
0.00131694
0.0013758
0.00145647
9.70521e-14
2.21739e-13
6.39921e-13
1.89311e-12
5.59286e-12
1.64692e-11
4.82939e-11
1.41279e-10
4.11586e-10
1.19803e-09
3.4719e-09
1.00353e-08
2.8677e-08
8.04021e-08
2.20022e-07
5.76141e-07
1.40109e-06
3.22752e-06
7.33798e-06
1.71362e-05
3.94188e-05
8.25462e-05
0.000151474
0.00024511
0.000355643
0.000473096
0.000589836
0.000699255
0.000798777
0.000889906
0.000978937
0.00106635
0.00115045
0.00123101
0.00131003
0.00138819
0.00146659
0.00154418
0.00161614
0.00171388
9.87637e-14
2.25488e-13
6.49478e-13
1.91474e-12
5.63205e-12
1.64951e-11
4.80395e-11
1.39179e-10
4.00867e-10
1.14852e-09
3.2693e-09
9.22388e-09
2.56581e-08
6.97848e-08
1.83906e-07
4.66664e-07
1.12461e-06
2.5427e-06
5.40573e-06
1.09082e-05
2.11123e-05
3.93966e-05
7.05641e-05
0.000119877
0.000191258
0.000285569
0.000400176
0.000528774
0.000664288
0.000800186
0.000930553
0.00105393
0.00117399
0.00129072
0.0014036
0.0015117
0.00161523
0.00171283
0.00179826
0.00191037
9.93722e-14
2.26809e-13
6.53011e-13
1.92331e-12
5.64778e-12
1.64858e-11
4.78061e-11
1.37612e-10
3.93148e-10
1.11413e-09
3.12999e-09
8.69135e-09
2.37406e-08
6.33294e-08
1.63561e-07
4.05981e-07
9.62467e-07
2.16547e-06
4.6015e-06
9.22623e-06
1.75057e-05
3.15328e-05
5.41508e-05
8.8856e-05
0.000139476
0.000209411
0.000300725
0.000413278
0.000544672
0.000690041
0.000843533
0.000998653
0.00114987
0.00129472
0.00143388
0.00156584
0.00168972
0.00180381
0.00190016
0.00202207
9.90018e-14
2.26004e-13
6.50953e-13
1.91754e-12
5.62872e-12
1.64105e-11
4.74746e-11
1.36154e-10
3.86932e-10
1.08905e-09
3.03293e-09
8.3371e-09
2.25131e-08
5.93427e-08
1.51509e-07
3.71984e-07
8.7302e-07
1.95028e-06
4.13589e-06
8.31203e-06
1.58344e-05
2.86165e-05
4.91702e-05
8.0487e-05
0.000125813
0.000188163
0.000269888
0.000371931
0.00049363
0.0006323
0.000783996
0.000943427
0.00110555
0.0012649
0.00141766
0.00156087
0.00169358
0.00181491
0.00191579
0.00204253
9.88826e-14
2.25731e-13
6.50039e-13
1.91391e-12
5.61247e-12
1.63381e-11
4.71616e-11
1.3487e-10
3.81845e-10
1.0698e-09
2.96272e-09
8.0926e-09
2.17051e-08
5.68224e-08
1.44176e-07
3.52154e-07
8.23285e-07
1.83442e-06
3.88617e-06
7.8172e-06
1.49312e-05
2.7091e-05
4.67522e-05
7.68427e-05
0.000120523
0.000180684
0.000259496
0.000357724
0.000474625
0.000607577
0.000752937
0.000905999
0.0010625
0.00121796
0.00136913
0.00151268
0.00164631
0.00176906
0.00187066
0.00200031
9.87522e-14
2.25433e-13
6.49098e-13
1.91043e-12
5.59856e-12
1.62808e-11
4.69251e-11
1.3392e-10
3.7816e-10
1.05605e-09
2.91377e-09
7.9262e-09
2.11718e-08
5.52133e-08
1.39657e-07
3.40375e-07
7.94969e-07
1.77164e-06
3.75759e-06
7.57347e-06
1.45021e-05
2.63884e-05
4.56756e-05
7.5285e-05
0.000118358
0.000177748
0.000255541
0.000352384
0.00046737
0.000597744
0.000739724
0.000888568
0.00104001
0.00118984
0.00133514
0.00147304
0.00160145
0.00171997
0.00181799
0.00194493
9.87752e-14
2.25477e-13
6.49131e-13
1.90995e-12
5.59408e-12
1.62538e-11
4.67921e-11
1.33333e-10
3.75797e-10
1.04709e-09
2.88193e-09
7.81904e-09
2.08339e-08
5.42167e-08
1.36933e-07
3.33508e-07
7.79101e-07
1.73816e-06
3.6933e-06
7.46122e-06
1.4324e-05
2.61303e-05
4.53352e-05
7.4872e-05
0.000117872
0.000177155
0.000254715
0.000351056
0.000465118
0.000594003
0.000733824
0.000879862
0.00102795
0.00117406
0.00131547
0.00144959
0.00157439
0.00168968
0.00178485
0.00190887
9.87954e-14
2.25518e-13
6.49188e-13
1.90973e-12
5.59138e-12
1.62366e-11
4.6706e-11
1.32951e-10
3.74257e-10
1.04131e-09
2.8616e-09
7.75182e-09
2.06261e-08
5.36193e-08
1.35347e-07
3.29655e-07
7.70593e-07
1.72132e-06
3.66373e-06
7.41601e-06
1.42668e-05
2.60816e-05
4.53303e-05
7.49626e-05
0.000118113
0.000177569
0.000255242
0.000351521
0.000465168
0.000593143
0.000731531
0.000875611
0.00102131
0.00116478
0.00130346
0.0014349
0.00155716
0.00167012
0.00176327
0.00188504
9.87341e-14
2.25374e-13
6.48739e-13
1.90817e-12
5.5855e-12
1.62142e-11
4.66203e-11
1.32626e-10
3.73078e-10
1.03721e-09
2.84803e-09
7.70924e-09
2.05003e-08
5.32731e-08
1.34467e-07
3.27619e-07
7.66366e-07
1.71365e-06
3.65198e-06
7.40315e-06
1.42629e-05
2.61073e-05
4.54245e-05
7.51783e-05
0.000118508
0.000178175
0.000256035
0.000352379
0.000465869
0.000593384
0.000730874
0.000873751
0.00101783
0.00115962
0.00129646
0.00142608
0.00154659
0.00165798
0.00174978
0.00187004
9.88344e-14
2.2561e-13
6.49375e-13
1.90986e-12
5.58957e-12
1.62222e-11
4.6629e-11
1.32608e-10
3.72873e-10
1.03619e-09
2.84386e-09
7.69455e-09
2.04531e-08
5.31373e-08
1.3411e-07
3.26789e-07
7.64642e-07
1.71064e-06
3.64773e-06
7.39971e-06
1.42654e-05
2.61299e-05
4.54863e-05
7.53156e-05
0.000118741
0.000178548
0.000256502
0.000352946
0.00046634
0.000593701
0.000730758
0.00087311
0.00101638
0.00115743
0.00129332
0.001422
0.00154168
0.00165231
0.00174346
0.00186301
3.3414e-19
7.6569e-19
2.22261e-18
6.63445e-18
1.98564e-17
5.94011e-17
1.77448e-16
5.28916e-16
1.57181e-15
4.65339e-15
1.37134e-14
4.01967e-14
1.17119e-13
3.39014e-13
9.74289e-13
2.77719e-12
7.83799e-12
2.18426e-11
5.98993e-11
1.61001e-10
4.225e-10
1.0785e-09
2.66968e-09
6.39229e-09
1.47759e-08
3.29266e-08
7.06563e-08
1.45908e-07
2.8977e-07
5.53301e-07
1.0154e-06
1.79077e-06
3.03415e-06
4.93982e-06
7.72479e-06
1.16117e-05
1.67392e-05
2.3379e-05
3.0484e-05
4.45379e-05
3.34159e-19
7.65797e-19
2.22311e-18
6.6361e-18
1.98615e-17
5.94198e-17
1.77527e-16
5.2925e-16
1.5732e-15
4.65887e-15
1.37338e-14
4.02675e-14
1.17352e-13
3.39736e-13
9.76397e-13
2.78272e-12
7.85168e-12
2.18659e-11
5.9927e-11
1.60947e-10
4.2189e-10
1.07573e-09
2.65993e-09
6.36203e-09
1.46921e-08
3.27108e-08
7.01473e-08
1.44769e-07
2.87423e-07
5.48668e-07
1.00691e-06
1.77586e-06
3.00981e-06
4.90151e-06
7.66863e-06
1.15337e-05
1.66366e-05
2.32507e-05
3.03349e-05
4.43694e-05
3.3425e-19
7.66002e-19
2.22369e-18
6.6383e-18
1.98712e-17
5.94635e-17
1.77718e-16
5.3006e-16
1.57646e-15
4.67128e-15
1.37788e-14
4.0423e-14
1.17862e-13
3.4132e-13
9.81022e-13
2.7953e-12
7.8816e-12
2.19329e-11
6.00035e-11
1.60864e-10
4.20851e-10
1.07077e-09
2.64177e-09
6.30499e-09
1.45318e-08
3.22982e-08
6.91641e-08
1.42585e-07
2.82873e-07
5.39756e-07
9.90472e-07
1.74718e-06
2.96272e-06
4.828e-06
7.56041e-06
1.13833e-05
1.64391e-05
2.3005e-05
3.00503e-05
4.40502e-05
3.34255e-19
7.66023e-19
2.22389e-18
6.63998e-18
1.98816e-17
5.95199e-17
1.77991e-16
5.31267e-16
1.58144e-15
4.69067e-15
1.38503e-14
4.06739e-14
1.18698e-13
3.43965e-13
9.88897e-13
2.81726e-12
7.93697e-12
2.20554e-11
6.0206e-11
1.60979e-10
4.19916e-10
1.06461e-09
2.61741e-09
6.2257e-09
1.43043e-08
3.17052e-08
6.77396e-08
1.394e-07
2.76209e-07
5.2666e-07
9.66222e-07
1.70481e-06
2.89276e-06
4.71879e-06
7.3992e-06
1.11581e-05
1.61422e-05
2.26343e-05
2.96201e-05
4.35669e-05
3.34392e-19
7.6635e-19
2.22497e-18
6.64418e-18
1.99e-17
5.96059e-17
1.78383e-16
5.32995e-16
1.58862e-15
4.71902e-15
1.39563e-14
4.10517e-14
1.19979e-13
3.48091e-13
1.0015e-12
2.85326e-12
8.03272e-12
2.22768e-11
6.06748e-11
1.61551e-10
4.19586e-10
1.05915e-09
2.59094e-09
6.13326e-09
1.40292e-08
3.09727e-08
6.59545e-08
1.35369e-07
2.67711e-07
5.09853e-07
9.34946e-07
1.64991e-06
2.80175e-06
4.57612e-06
7.18781e-06
1.08617e-05
1.57498e-05
2.21415e-05
2.90451e-05
4.2914e-05
3.35898e-19
7.698e-19
2.23461e-18
6.67029e-18
1.99701e-17
5.98093e-17
1.79066e-16
5.35573e-16
1.59881e-15
4.75897e-15
1.41075e-14
4.16001e-14
1.21875e-13
3.54334e-13
1.02102e-12
2.91077e-12
8.19004e-12
2.2673e-11
6.15304e-11
1.63197e-10
4.21202e-10
1.05666e-09
2.56921e-09
6.04165e-09
1.37352e-08
3.0157e-08
6.39157e-08
1.30683e-07
2.57704e-07
4.89855e-07
8.97405e-07
1.5835e-06
2.69093e-06
4.40137e-06
6.92755e-06
1.04951e-05
1.52631e-05
2.1528e-05
2.83283e-05
4.20999e-05
3.36881e-19
7.72075e-19
2.24151e-18
6.69313e-18
2.00511e-17
6.01019e-17
1.80149e-16
5.39631e-16
1.61428e-15
4.81771e-15
1.43275e-14
4.23994e-14
1.24674e-13
3.6372e-13
1.05102e-12
3.00134e-12
8.44694e-12
2.33454e-11
6.31416e-11
1.66507e-10
4.27138e-10
1.06212e-09
2.56071e-09
5.97158e-09
1.34625e-08
2.93327e-08
6.17505e-08
1.25555e-07
2.46538e-07
4.6725e-07
8.54587e-07
1.50726e-06
2.56307e-06
4.19897e-06
6.6252e-06
1.00681e-05
1.46947e-05
2.08092e-05
2.7487e-05
4.11336e-05
3.36781e-19
7.71601e-19
2.24042e-18
6.69801e-18
2.01036e-17
6.03996e-17
1.81506e-16
5.4523e-16
1.63634e-15
4.90207e-15
1.46439e-14
4.35549e-14
1.28773e-13
3.77724e-13
1.09668e-12
3.14304e-12
8.86373e-12
2.4482e-11
6.59576e-11
1.72784e-10
4.39078e-10
1.08085e-09
2.57529e-09
5.94111e-09
1.32475e-08
2.85623e-08
5.95658e-08
1.20144e-07
2.3439e-07
4.42133e-07
8.0644e-07
1.42122e-06
2.4191e-06
3.97257e-06
6.29002e-06
9.5994e-06
1.40775e-05
2.00376e-05
2.65992e-05
4.01375e-05
3.36544e-19
7.71466e-19
2.2414e-18
6.70698e-18
2.0154e-17
6.06798e-17
1.82877e-16
5.5156e-16
1.66334e-15
5.01229e-15
1.50734e-14
4.51767e-14
1.34681e-13
3.9842e-13
1.16616e-12
3.37093e-12
9.5479e-12
2.6282e-11
7.02373e-11
1.82038e-10
4.57113e-10
1.11078e-09
2.61211e-09
5.93613e-09
1.30594e-08
2.78227e-08
5.74826e-08
1.15186e-07
2.23932e-07
4.21845e-07
7.69424e-07
1.35739e-06
2.31445e-06
3.80979e-06
6.05143e-06
9.27166e-06
1.36598e-05
1.95379e-05
2.60574e-05
3.95951e-05
3.36076e-19
7.7102e-19
2.24216e-18
6.71442e-18
2.01947e-17
6.09288e-17
1.842e-16
5.58342e-16
1.69442e-15
5.14858e-15
1.56308e-14
4.73944e-14
1.4305e-13
4.28746e-13
1.27625e-12
3.74216e-12
1.0546e-11
2.89051e-11
7.7017e-11
1.99343e-10
5.01657e-10
1.22479e-09
2.87275e-09
6.45722e-09
1.39395e-08
2.90614e-08
5.89033e-08
1.16435e-07
2.24615e-07
4.21814e-07
7.6959e-07
1.36058e-06
2.32728e-06
3.8453e-06
6.13161e-06
9.42608e-06
1.39248e-05
1.99523e-05
2.6645e-05
4.04427e-05
3.3608e-19
7.70694e-19
2.24129e-18
6.71573e-18
2.02323e-17
6.12061e-17
1.85823e-16
5.66584e-16
1.73323e-15
5.32186e-15
1.63663e-14
5.04357e-14
1.54925e-13
4.74867e-13
1.45521e-12
4.22628e-12
1.20154e-11
4.41961e-11
2.76188e-10
1.52769e-09
5.81738e-09
1.61277e-08
3.52564e-08
6.4453e-08
1.02441e-07
1.46911e-07
2.00614e-07
2.77244e-07
4.04893e-07
6.31475e-07
1.03192e-06
1.71564e-06
2.83524e-06
4.58373e-06
7.18873e-06
1.08923e-05
1.58747e-05
2.24406e-05
2.96216e-05
4.39792e-05
3.35921e-19
7.69983e-19
2.23975e-18
6.71617e-18
2.02844e-17
6.15527e-17
1.8791e-16
5.76769e-16
1.78284e-15
5.54272e-15
1.73503e-14
5.46125e-14
1.71771e-13
5.53537e-13
1.64797e-12
5.28166e-12
2.44742e-10
4.84124e-09
3.11469e-08
1.06698e-07
2.50763e-07
4.63653e-07
7.27748e-07
1.01253e-06
1.27228e-06
1.46524e-06
1.58701e-06
1.68525e-06
1.82251e-06
2.08291e-06
2.5897e-06
3.50498e-06
5.02199e-06
7.35809e-06
1.07421e-05
1.53815e-05
2.13766e-05
2.89375e-05
3.68623e-05
5.17055e-05
3.34766e-19
7.67496e-19
2.2345e-18
6.71222e-18
2.03351e-17
6.1952e-17
1.90324e-16
5.88863e-16
1.84318e-15
5.81851e-15
1.86434e-14
6.02079e-14
1.97749e-13
6.65922e-13
1.86505e-12
6.97238e-10
3.35999e-08
2.36375e-07
7.04124e-07
1.36649e-06
2.12643e-06
2.90507e-06
3.62824e-06
4.24966e-06
4.7011e-06
4.97609e-06
5.14603e-06
5.30147e-06
5.54314e-06
5.99581e-06
6.84781e-06
8.32497e-06
1.066e-05
1.40645e-05
1.87008e-05
2.46742e-05
3.18942e-05
4.04461e-05
4.8822e-05
6.31532e-05
3.34603e-19
7.67358e-19
2.23429e-18
6.71941e-18
2.03927e-17
6.23796e-17
1.92828e-16
6.02392e-16
1.91314e-15
6.15158e-15
2.03059e-14
6.77181e-14
2.36709e-13
8.26853e-13
2.69218e-12
7.47014e-08
7.68939e-07
2.11855e-06
3.45693e-06
4.59698e-06
5.60535e-06
6.48177e-06
7.2028e-06
7.77972e-06
8.28579e-06
8.81565e-06
9.43184e-06
1.01652e-05
1.11195e-05
1.2475e-05
1.4443e-05
1.7241e-05
2.10472e-05
2.5992e-05
3.20868e-05
3.92864e-05
4.72377e-05
5.59583e-05
6.37023e-05
7.58054e-05
3.35172e-19
7.68283e-19
2.23686e-18
6.72996e-18
2.04611e-17
6.28472e-17
1.95576e-16
6.17371e-16
1.99315e-15
6.537e-15
2.24243e-14
7.72672e-14
2.98183e-13
1.0517e-12
5.67387e-12
1.5347e-06
3.89375e-06
5.1177e-06
6.13292e-06
7.13821e-06
8.02371e-06
8.82712e-06
9.73427e-06
1.07327e-05
1.21275e-05
1.41963e-05
1.67972e-05
1.96445e-05
2.25119e-05
2.54357e-05
2.8668e-05
3.25384e-05
3.72759e-05
4.3e-05
4.95626e-05
5.68104e-05
6.41036e-05
7.16278e-05
7.74884e-05
8.6133e-05
1.96679e-19
7.22777e-19
2.24533e-18
6.75071e-18
2.05211e-17
6.33214e-17
1.98276e-16
6.33668e-16
2.07373e-15
6.9979e-15
2.47263e-14
9.04324e-14
3.77248e-13
1.49497e-12
1.6237e-11
8.42703e-06
6.07349e-06
5.62068e-06
6.90378e-06
8.52488e-06
9.36286e-06
1.07842e-05
1.46021e-05
2.28521e-05
3.35206e-05
4.34117e-05
4.72534e-05
4.70499e-05
4.69351e-05
4.74668e-05
4.9094e-05
5.19954e-05
5.61383e-05
6.12791e-05
6.69449e-05
7.29296e-05
7.83333e-05
8.38759e-05
8.73583e-05
9.28031e-05
1.86326e-19
7.04754e-19
2.22579e-18
6.74571e-18
2.05788e-17
6.37593e-17
2.00908e-16
6.48999e-16
2.15459e-15
7.4651e-15
2.71014e-14
1.06249e-13
4.64764e-13
2.23572e-12
3.53714e-11
1.73042e-05
1.90152e-05
0.000101119
0.00012656
0.000120832
0.00011359
0.000106443
9.84969e-05
8.98223e-05
8.28933e-05
8.15925e-05
8.23858e-05
8.4531e-05
8.71575e-05
9.09013e-05
9.26406e-05
9.62349e-05
3.33128e-19
7.6408e-19
2.22897e-18
6.73284e-18
2.06152e-17
6.40901e-17
2.03224e-16
6.61598e-16
2.22855e-15
7.8588e-15
2.94553e-14
1.20097e-13
5.54932e-13
2.91891e-12
5.03742e-11
1.94758e-05
7.4129e-05
0.000194562
0.000180902
0.000164668
0.000142052
0.00011845
0.000100044
8.91681e-05
8.54044e-05
8.57049e-05
8.68681e-05
8.91321e-05
9.12168e-05
9.45483e-05
9.52126e-05
9.78815e-05
3.32714e-19
7.63682e-19
2.22837e-18
6.73506e-18
2.06465e-17
6.43515e-17
2.04828e-16
6.7119e-16
2.28157e-15
8.16481e-15
3.12285e-14
1.31143e-13
6.33326e-13
3.54293e-12
6.66552e-11
2.18479e-05
8.89224e-05
0.00019127
0.000170212
0.00014411
0.000117232
9.66518e-05
8.58845e-05
8.36659e-05
8.42075e-05
8.58779e-05
8.82121e-05
9.1096e-05
9.30276e-05
9.63847e-05
9.64115e-05
9.86597e-05
3.32627e-19
7.63561e-19
2.22865e-18
6.73629e-18
2.06632e-17
6.44634e-17
2.05641e-16
6.75779e-16
2.30951e-15
8.31741e-15
3.21683e-14
1.36647e-13
6.71571e-13
3.83601e-12
7.36636e-11
2.22063e-05
9.56976e-05
0.000191486
0.000164239
0.000130465
0.000101089
8.51678e-05
8.14466e-05
8.22881e-05
8.38606e-05
8.63406e-05
8.90232e-05
9.20144e-05
9.37966e-05
9.7114e-05
9.68185e-05
9.89257e-05
3.32621e-19
7.63546e-19
2.2286e-18
6.73612e-18
2.06626e-17
6.44616e-17
2.05635e-16
6.75762e-16
2.30945e-15
8.31721e-15
3.21677e-14
1.36644e-13
6.71566e-13
3.83597e-12
7.36628e-11
2.22062e-05
9.57021e-05
0.000191494
0.000164246
0.00013047
0.000101093
8.51695e-05
8.14472e-05
8.22885e-05
8.38608e-05
8.63405e-05
8.9023e-05
9.20143e-05
9.37965e-05
9.71139e-05
9.68184e-05
9.89258e-05
3.32713e-19
7.63679e-19
2.22837e-18
6.73505e-18
2.06471e-17
6.4354e-17
2.04838e-16
6.71228e-16
2.28175e-15
8.16549e-15
3.12322e-14
1.31151e-13
6.33442e-13
3.53973e-12
6.6672e-11
2.18484e-05
8.89333e-05
0.000191295
0.000170234
0.000144129
0.000117246
9.6661e-05
8.58894e-05
8.36679e-05
8.42086e-05
8.58787e-05
8.82129e-05
9.10965e-05
9.3028e-05
9.63851e-05
9.64117e-05
9.86597e-05
3.32908e-19
7.6392e-19
2.22882e-18
6.73263e-18
2.06153e-17
6.40918e-17
2.03236e-16
6.61654e-16
2.22885e-15
7.86004e-15
2.94634e-14
1.20122e-13
5.55363e-13
2.91402e-12
5.0396e-11
1.94771e-05
7.4143e-05
0.000194603
0.000180938
0.000164698
0.000142076
0.000118466
0.000100053
8.91732e-05
8.54059e-05
8.57061e-05
8.68688e-05
8.91325e-05
9.12171e-05
9.45486e-05
9.52125e-05
9.78808e-05
3.33214e-19
7.64653e-19
2.22984e-18
6.73201e-18
2.0566e-17
6.37537e-17
2.0093e-16
6.49086e-16
2.15502e-15
7.46667e-15
2.71108e-14
1.06275e-13
4.65224e-13
2.23164e-12
3.53917e-11
1.73041e-05
1.90177e-05
0.000101134
0.000126578
0.000120847
0.000113601
0.000106452
9.85047e-05
8.98274e-05
8.28966e-05
8.15932e-05
8.23864e-05
8.45315e-05
8.71579e-05
9.09016e-05
9.26405e-05
9.62342e-05
3.33694e-19
7.65335e-19
2.2303e-18
6.72556e-18
2.05048e-17
6.33146e-17
1.98285e-16
6.33764e-16
2.0741e-15
7.00009e-15
2.47362e-14
9.0447e-14
3.78252e-13
1.4899e-12
1.62558e-11
8.42741e-06
6.07353e-06
5.62127e-06
6.90517e-06
8.52735e-06
9.36484e-06
1.07853e-05
1.46024e-05
2.28517e-05
3.352e-05
4.3411e-05
4.72517e-05
4.70475e-05
4.69324e-05
4.74643e-05
4.90921e-05
5.19943e-05
5.6138e-05
6.12795e-05
6.69456e-05
7.29304e-05
7.83336e-05
8.38759e-05
8.73578e-05
9.28021e-05
3.352e-19
7.6825e-19
2.23664e-18
6.72946e-18
2.04618e-17
6.28466e-17
1.95581e-16
6.17411e-16
1.99357e-15
6.53816e-15
2.24381e-14