/*--------------------------------*- C++ -*----------------------------------*\
| =========                 |                                                 |
| \\      /  F ield         | OpenFOAM: The Open Source CFD Toolbox           |
|  \\    /   O peration     | Version:  2412                                  |
|   \\  /    A nd           | Website:  www.openfoam.com                      |
|    \\/     M anipulation  |                                                 |
\*---------------------------------------------------------------------------*/
FoamFile
{
    version     2.0;
    format      ascii;
    arch        "LSB;label=32;scalar=64";
    class       volScalarField;
    location    "5";
    object      alpha3;
}
// * * * * * * * * * * * * * * * * * * * * * * * * * * * * * * * * * * * * * //

dimensions      [0 0 0 0 0 0 0];

internalField   nonuniform List<scalar> 
47360
(
3.78008e-14
8.64486e-14
2.49803e-13
7.39284e-13
2.18319e-12
6.41261e-12
1.87152e-11
5.42188e-11
1.55805e-10
4.4389e-10
1.25321e-09
3.50164e-09
9.65576e-09
2.61518e-08
6.91395e-08
1.7722e-07
4.37607e-07
1.03539e-06
2.33764e-06
5.02208e-06
1.02484e-05
1.98478e-05
3.64736e-05
6.3625e-05
0.000105434
0.000166189
0.000249533
0.000357679
0.000490538
0.0006457
0.000818317
0.00100251
0.00119154
0.00138012
0.00156305
0.00173698
0.00189876
0.0020488
0.00217226
0.00233679
3.77843e-14
8.64091e-14
2.49702e-13
7.39052e-13
2.18283e-12
6.41263e-12
1.87194e-11
5.42456e-11
1.55933e-10
4.4441e-10
1.25515e-09
3.5083e-09
9.67714e-09
2.62149e-08
6.9311e-08
1.77638e-07
4.38519e-07
1.03707e-06
2.34009e-06
5.02387e-06
1.02454e-05
1.98283e-05
3.64166e-05
6.34918e-05
0.000105184
0.000165754
0.000248901
0.000356795
0.000489534
0.000644579
0.000817391
0.00100179
0.0011915
0.00138052
0.00156428
0.00173906
0.00190164
0.00205241
0.00217649
0.00234176
3.77722e-14
8.63824e-14
2.49634e-13
7.389e-13
2.18269e-12
6.41387e-12
1.87293e-11
5.42975e-11
1.56163e-10
4.45331e-10
1.25856e-09
3.5201e-09
9.71524e-09
2.63289e-08
6.96247e-08
1.78419e-07
4.40246e-07
1.04035e-06
2.34513e-06
5.02884e-06
1.02414e-05
1.97964e-05
3.63213e-05
6.32655e-05
0.000104738
0.000164995
0.000247757
0.000355263
0.000487717
0.000642692
0.000815795
0.00100083
0.00119161
0.00138193
0.00156723
0.00174359
0.00190782
0.00206015
0.00218559
0.00235247
3.77816e-14
8.64046e-14
2.49715e-13
7.39263e-13
2.18445e-12
6.4221e-12
1.87654e-11
5.44472e-11
1.56749e-10
4.47516e-10
1.2663e-09
3.54611e-09
9.79785e-09
2.6575e-08
7.03057e-08
1.80149e-07
4.44243e-07
1.04859e-06
2.36001e-06
5.05102e-06
1.02665e-05
1.98044e-05
3.62648e-05
6.30751e-05
0.000104317
0.000164215
0.000246536
0.000353599
0.000485763
0.000640761
0.000814356
0.00100043
0.00119278
0.00138514
0.00157273
0.00175144
0.00191804
0.00207263
0.00220007
0.00236929
3.7862e-14
8.6589e-14
2.50271e-13
7.41019e-13
2.19029e-12
6.44291e-12
1.884e-11
5.47194e-11
1.57732e-10
4.51009e-10
1.27835e-09
3.58635e-09
9.92636e-09
2.69644e-08
7.14103e-08
1.83055e-07
4.51257e-07
1.06398e-06
2.39044e-06
5.10457e-06
1.03488e-05
1.99102e-05
3.63683e-05
6.31121e-05
0.000104188
0.000163826
0.000245818
0.000352584
0.000484645
0.000639947
0.00081444
0.0010021
0.00119671
0.00139178
0.00158241
0.0017642
0.0019338
0.00209119
0.00222115
0.00239321
3.78344e-14
8.65252e-14
2.50104e-13
7.40688e-13
2.1904e-12
6.44779e-12
1.8874e-11
5.49019e-11
1.58576e-10
4.54558e-10
1.29222e-09
3.63738e-09
1.01021e-08
2.75308e-08
7.31036e-08
1.87733e-07
4.63122e-07
1.09152e-06
2.44875e-06
5.21725e-06
1.05477e-05
2.0231e-05
3.6841e-05
6.37508e-05
0.000104987
0.000164764
0.000246903
0.000353896
0.000486416
0.000642555
0.000818428
0.00100808
0.0012053
0.00140348
0.00159758
0.00178297
0.00195627
0.00211715
0.00225048
0.00242655
3.77562e-14
8.63484e-14
2.49636e-13
7.39611e-13
2.18851e-12
6.44799e-12
1.89044e-11
5.51104e-11
1.59668e-10
4.59487e-10
1.31249e-09
3.7143e-09
1.03739e-08
2.84275e-08
7.58507e-08
1.95529e-07
4.83515e-07
1.14071e-06
2.55823e-06
5.44235e-06
1.09753e-05
2.09819e-05
3.80621e-05
6.5594e-05
0.000107584
0.000168218
0.000251299
0.000359349
0.000493108
0.000650744
0.000828427
0.00102018
0.0012198
0.00142061
0.0016177
0.00180642
0.00198353
0.00214795
0.00228492
0.00246432
3.79215e-14
8.6713e-14
2.50564e-13
7.42112e-13
2.19663e-12
6.47897e-12
1.90304e-11
5.56335e-11
1.61822e-10
4.68037e-10
1.34533e-09
3.83483e-09
1.07977e-08
2.98375e-08
8.02594e-08
2.08369e-07
5.18344e-07
1.2284e-06
2.7608e-06
5.86994e-06
1.17963e-05
2.24244e-05
4.04045e-05
6.91588e-05
0.000112696
0.000175164
0.000260248
0.000370219
0.000505591
0.000664282
0.000842392
0.00103409
0.0012334
0.00143384
0.00163058
0.00181855
0.0019947
0.00215783
0.00229439
0.00247158
3.78379e-14
8.65392e-14
2.50167e-13
7.41601e-13
2.198e-12
6.49693e-12
1.91426e-11
5.62141e-11
1.64426e-10
4.79043e-10
1.38917e-09
4.0033e-09
1.14151e-08
3.19838e-08
8.72441e-08
2.29732e-07
5.79079e-07
1.38317e-06
3.11016e-06
6.57774e-06
1.31303e-05
2.48e-05
4.44674e-05
7.58237e-05
0.000123258
0.000191284
0.000283819
0.000402985
0.000548261
0.000716016
0.000900369
0.0010934
0.00128825
0.0014784
0.00165986
0.00183041
0.00199058
0.00213951
0.00226619
0.00243107
3.73743e-14
8.55196e-14
2.47567e-13
7.35586e-13
2.1867e-12
6.48881e-12
1.9214e-11
5.67804e-11
1.67388e-10
4.92884e-10
1.44781e-09
4.24446e-09
1.23399e-08
3.53468e-08
9.88275e-08
2.66926e-07
6.82526e-07
1.62931e-06
3.66582e-06
7.81689e-06
1.59845e-05
3.15998e-05
6.0036e-05
0.000108114
0.000182143
0.000285347
0.000417053
0.000572416
0.000742988
0.000919351
0.00109428
0.00126071
0.00141575
0.00156075
0.00170069
0.0018358
0.00196561
0.00208735
0.00219381
0.0023302
3.71846e-14
8.50753e-14
2.46404e-13
7.32712e-13
2.18277e-12
6.4965e-12
1.93428e-11
5.75686e-11
1.71606e-10
5.12441e-10
1.534e-09
4.60765e-09
1.3778e-08
4.07952e-08
1.19265e-07
3.2838e-07
8.47427e-07
2.10243e-06
5.48427e-06
1.55616e-05
4.16846e-05
9.46759e-05
0.000181284
0.000301326
0.000445995
0.000602997
0.000761424
0.000912893
0.00105015
0.00117168
0.00128024
0.00138227
0.00148272
0.00158064
0.00167463
0.00176306
0.0018464
0.00192432
0.00199492
0.00208231
3.75173e-14
8.58161e-14
2.48516e-13
7.39122e-13
2.20575e-12
6.58308e-12
1.97229e-11
5.91362e-11
1.7871e-10
5.41881e-10
1.66423e-09
5.14739e-09
1.60125e-08
5.00227e-08
1.5371e-07
4.2906e-07
1.41962e-06
7.68077e-06
3.61591e-05
0.000109696
0.000231877
0.000385014
0.000547917
0.000702602
0.000836376
0.000949941
0.00104234
0.00111556
0.00118257
0.00124758
0.00130877
0.00135875
0.0013982
0.00143265
0.00146917
0.00151015
0.00155427
0.00159927
0.00163949
0.0017065
3.77671e-14
8.64116e-14
2.50233e-13
7.45122e-13
2.22757e-12
6.67823e-12
2.01382e-11
6.10078e-11
1.87273e-10
5.79565e-10
1.83702e-09
5.91536e-09
1.93903e-08
6.66092e-08
2.04919e-07
1.08193e-06
1.63384e-05
9.34747e-05
0.000259551
0.000461231
0.000634875
0.000771612
0.000875091
0.000941846
0.00099734
0.00105075
0.00109488
0.00111845
0.00112344
0.0011243
0.00112425
0.00112263
0.00112617
0.00113672
0.00115662
0.00118733
0.00122973
0.00128778
0.0013485
0.00146905
3.80577e-14
8.71003e-14
2.52045e-13
7.51946e-13
2.24999e-12
6.78841e-12
2.05792e-11
6.32023e-11
1.96994e-10
6.25485e-10
2.0581e-09
6.98728e-09
2.46733e-08
9.69518e-08
3.15111e-07
2.31035e-05
0.000174064
0.000460677
0.000686527
0.000795485
0.00084924
0.000901211
0.000942443
0.000954333
0.000958644
0.000957115
0.000953079
0.000942926
0.000925174
0.000908899
0.000911489
0.000925375
0.000955268
0.00100219
0.00106556
0.00114686
0.00123754
0.00133518
0.00141659
0.00155948
3.84961e-14
8.79731e-14
2.54616e-13
7.58626e-13
2.27503e-12
6.87805e-12
2.09919e-11
6.52066e-11
2.06888e-10
6.75644e-10
2.34041e-09
8.37986e-09
3.39648e-08
1.48691e-07
6.11048e-07
0.00027487
0.000625756
0.000838479
0.000849807
0.000830718
0.000813993
0.000786295
0.000753717
0.000755416
0.000802348
0.000883359
0.000961461
0.00101362
0.00107716
0.00114912
0.00119526
0.0012154
0.00123271
0.00125933
0.00130049
0.00136239
0.00143897
0.00153586
0.00161089
0.00174944
3.77333e-14
8.62603e-14
2.5011e-13
7.46598e-13
2.24992e-12
6.83826e-12
2.11049e-11
6.64835e-11
2.15717e-10
7.32249e-10
2.66228e-09
1.03359e-08
4.88352e-08
2.31347e-07
1.26721e-06
0.00118029
0.000870906
0.000542456
0.000318463
0.000135698
0.000139861
0.00026601
0.000612202
0.00102802
0.00145278
0.00220485
0.00216664
0.00199922
0.00176787
0.00159425
0.00151248
0.00151134
0.0015235
0.00155374
0.00159647
0.0016562
0.0017161
0.00179723
0.00184087
0.00194802
3.70301e-14
8.47531e-14
2.46021e-13
7.37201e-13
2.22897e-12
6.82773e-12
2.12571e-11
6.80753e-11
2.25376e-10
7.94637e-10
3.00459e-09
1.29633e-08
6.60339e-08
3.57032e-07
2.15598e-06
0.00222085
0.00113732
0.00313465
0.00275473
0.0025567
0.00237472
0.0022371
0.00212918
0.00203421
0.00193992
0.00188194
0.00188188
0.0019025
0.00192744
0.00199537
0.00199429
0.00205358
3.69719e-14
8.46226e-14
2.45743e-13
7.36754e-13
2.23234e-12
6.8638e-12
2.15206e-11
6.96559e-11
2.34901e-10
8.50602e-10
3.36416e-09
1.54986e-08
8.38401e-08
4.84535e-07
2.71402e-06
0.00239099
0.00179675
0.00359709
0.0032235
0.00291368
0.00267299
0.00243494
0.00222642
0.00206701
0.00198235
0.00196928
0.00197247
0.00199919
0.00200782
0.00205168
0.00201053
0.0020629
3.68917e-14
8.44949e-14
2.45484e-13
7.36631e-13
2.23604e-12
6.89876e-12
2.17455e-11
7.10075e-11
2.42505e-10
8.97272e-10
3.65017e-09
1.76671e-08
1.00117e-07
5.87403e-07
3.31591e-06
0.0026006
0.00194955
0.00364024
0.00313018
0.00274305
0.00245357
0.00221843
0.00204987
0.00196682
0.00195088
0.001962
0.00197309
0.00200865
0.00200788
0.00204887
0.00198747
0.00204655
3.74047e-14
8.5625e-14
2.4862e-13
7.45482e-13
2.26337e-12
6.98436e-12
2.20577e-11
7.2175e-11
2.48035e-10
9.23629e-10
3.81427e-09
1.87115e-08
1.0635e-07
6.22851e-07
3.45035e-06
0.00255931
0.00205709
0.00369786
0.00309527
0.00264752
0.00232221
0.00209303
0.00196863
0.00193733
0.00193874
0.00195831
0.00197053
0.00200578
0.00199811
0.00204008
0.00196505
0.0020308
3.74061e-14
8.5628e-14
2.48628e-13
7.45506e-13
2.26343e-12
6.98455e-12
2.20582e-11
7.21763e-11
2.48039e-10
9.23637e-10
3.81427e-09
1.87113e-08
1.06346e-07
6.22824e-07
3.45021e-06
0.00255928
0.00205712
0.00369796
0.00309534
0.00264756
0.00232223
0.00209304
0.00196864
0.00193733
0.00193874
0.0019583
0.00197051
0.00200575
0.00199808
0.00204004
0.00196501
0.00203076
3.689e-14
8.44918e-14
2.45484e-13
7.36629e-13
2.236e-12
6.8986e-12
2.1745e-11
7.1006e-11
2.42503e-10
8.97276e-10
3.65007e-09
1.76653e-08
1.00105e-07
5.8711e-07
3.31523e-06
0.00260054
0.00194962
0.00364055
0.00313042
0.00274322
0.00245368
0.00221849
0.00204991
0.00196684
0.00195089
0.00196199
0.00197307
0.00200861
0.00200783
0.0020488
0.00198739
0.00204647
3.69681e-14
8.46127e-14
2.4571e-13
7.3669e-13
2.23221e-12
6.86357e-12
2.15205e-11
6.96573e-11
2.34914e-10
8.50655e-10
3.3646e-09
1.5498e-08
8.38536e-08
4.84059e-07
2.71287e-06
0.00239094
0.00179688
0.00359759
0.00322399
0.00291407
0.00267326
0.00243511
0.00222652
0.00206708
0.00198242
0.00196933
0.00197252
0.00199923
0.00200782
0.00205163
0.00201047
0.00206283
3.70234e-14
8.47401e-14
2.4598e-13
7.37055e-13
2.2288e-12
6.82723e-12
2.12545e-11
6.80701e-11
2.25376e-10
7.94667e-10
3.00481e-09
1.29638e-08
6.60449e-08
3.56649e-07
2.15514e-06
0.00222079
0.0011376
0.00313539
0.00275534
0.00255725
0.00237523
0.00223758
0.00212962
0.0020346
0.00194025
0.00188222
0.00188215
0.00190274
0.00192765
0.00199552
0.00199438
0.00205363
3.77274e-14
8.62476e-14
2.50089e-13
7.4651e-13
2.24951e-12
6.83787e-12
2.1105e-11
6.64853e-11
2.15725e-10
7.32346e-10
2.66273e-09
1.03362e-08
4.88742e-08
2.30938e-07
1.26639e-06
0.00118024
0.000870874
0.000542391
0.000318492
0.000135764
0.00013992
0.000265916
0.000612018
0.00102801
0.00145305
0.00220552
0.00216725
0.00199973
0.00176829
0.00159463
0.00151291
0.00151179
0.00152396
0.0015542
0.00159691
0.0016566
0.00171645
0.00179754
0.00184114
0.00194824
3.8448e-14
8.78634e-14
2.54302e-13
7.5773e-13
2.27247e-12
6.87043e-12
2.09723e-11
6.51542e-11
2.06767e-10
6.75368e-10
2.34036e-09
8.37771e-09
3.40063e-08
1.48388e-07
6.10598e-07
0.000274853
0.000625709
0.000838373
0.000849844
0.00083078
0.000814115
0.000786593
0.000753977
0.00075592
0.000802986
0.000884145
0.000962391
0.0010145
0.00107787
0.00114965
0.00119577
0.00121594
0.00123327
0.0012599
0.00130104
0.00136289
0.00143939
0.00153623
0.00161123
0.00174974
3.80597e-14
8.71049e-14
2.52057e-13
7.51966e-13
2.24993e-12
6.78752e-12
2.05746e-11
6.31828e-11
1.96937e-10
6.25295e-10
2.05789e-09
6.98528e-09
2.46959e-08
9.68028e-08
3.14809e-07
2.30973e-05
0.000174028
0.000460479
0.000686427
0.000795476
0.000849265
0.000901226
0.000942563
0.000954521
0.000958919
0.000957479
0.000953525
0.000943442
0.00092578
0.000909616
0.000912228
0.000926133
0.00095603
0.00100295
0.00106628
0.00114753
0.00123819
0.00133585
0.00141724
0.00156007
3.78123e-14
8.65171e-14
2.50535e-13
7.46037e-13
2.23029e-12
6.68636e-12
2.01613e-11
6.10711e-11
1.87432e-10
5.79943e-10
1.83786e-09
5.91676e-09
1.94018e-08
6.65713e-08
2.04826e-07
1.08106e-06
1.63326e-05
9.34497e-05
0.000259455
0.000461106
0.000634751
0.000771475
0.000875059
0.000941917
0.000997442
0.00105088
0.001095
0.00111857
0.00112361
0.0011245
0.00112453
0.00112306
0.00112668
0.00113735
0.00115739
0.00118822
0.0012307
0.00128878
0.00134949
0.00146998
3.75244e-14
8.58344e-14
2.48577e-13
7.39337e-13
2.20655e-12
6.58616e-12
1.97339e-11
5.91732e-11
1.78817e-10
5.42188e-10
1.66499e-09
5.14899e-09
1.60195e-08
5.00073e-08
1.53702e-07
4.28976e-07
1.41851e-06
7.67434e-06
3.61382e-05
0.000109639
0.000231767
0.000384851
0.000547709
0.000702399
0.000836227
0.000949854
0.00104234
0.0011156
0.00118258
0.0012475
0.00130858
0.00135856
0.00139807
0.00143261
0.00146922
0.00151034
0.00155468
0.00159996
0.00164045
0.00170783
3.71573e-14
8.50142e-14
2.46221e-13
7.32239e-13
2.1816e-12
6.49259e-12
1.93325e-11
5.75448e-11
1.71563e-10
5.12403e-10
1.53411e-09
4.60804e-09
1.37809e-08
4.07925e-08
1.19223e-07
3.2831e-07
8.47233e-07
2.10128e-06
5.48006e-06
1.55472e-05
4.16424e-05
9.45823e-05
0.000181117
0.000301078
0.000445684
0.000602656
0.000761079
0.000912563
0.00104983
0.00117136
0.0012799
0.00138183
0.00148213
0.00157989
0.00167378
0.0017622
0.00184561
0.00192369
0.00199446
0.00208245
3.73828e-14
8.55369e-14
2.47622e-13
7.35645e-13
2.1866e-12
6.48819e-12
1.92083e-11
5.67631e-11
1.67352e-10
4.92855e-10
1.44793e-09
4.24511e-09
1.23418e-08
3.53505e-08
9.88182e-08
2.6681e-07
6.82174e-07
1.62854e-06
3.66383e-06
7.81156e-06
1.59711e-05
3.15685e-05
5.99699e-05
0.000107989
0.000181934
0.00028504
0.000416646
0.000571925
0.000742434
0.000918743
0.00109362
0.00125999
0.00141496
0.00155987
0.00169963
0.00183456
0.00196422
0.00208593
0.00219236
0.00232904
3.78297e-14
8.65199e-14
2.50114e-13
7.41474e-13
2.19762e-12
6.49593e-12
1.91394e-11
5.62e-11
1.6438e-10
4.78915e-10
1.38887e-09
4.00265e-09
1.14135e-08
3.19793e-08
8.72289e-08
2.29665e-07
5.78791e-07
1.38223e-06
3.1079e-06
6.57297e-06
1.31207e-05
2.47812e-05
4.44325e-05
7.57627e-05
0.000123158
0.000191128
0.000283594
0.00040268
0.000547871
0.000715544
0.000899818
0.00109277
0.00128753
0.00147757
0.00165895
0.00182939
0.00198942
0.00213825
0.00226486
0.00242979
3.78708e-14
8.65985e-14
2.50266e-13
7.41317e-13
2.19431e-12
6.473e-12
1.90155e-11
5.55919e-11
1.61698e-10
4.67663e-10
1.34427e-09
3.83198e-09
1.07904e-08
2.98194e-08
8.0214e-08
2.08256e-07
5.1805e-07
1.22762e-06
2.75882e-06
5.86534e-06
1.17867e-05
2.24067e-05
4.0374e-05
6.91102e-05
0.000112623
0.000175061
0.000260112
0.000370048
0.000505391
0.000664059
0.00084215
0.00103383
0.00123312
0.00143352
0.00163019
0.00181808
0.00199414
0.00215717
0.00229366
0.0024708
3.78449e-14
8.65525e-14
2.50213e-13
7.41285e-13
2.19338e-12
6.46198e-12
1.89457e-11
5.52292e-11
1.59992e-10
4.60301e-10
1.31435e-09
3.71813e-09
1.03808e-08
2.84372e-08
7.58565e-08
1.95503e-07
4.83375e-07
1.14024e-06
2.55694e-06
5.4392e-06
1.09685e-05
2.09682e-05
3.80374e-05
6.55532e-05
0.000107523
0.000168133
0.000251189
0.000359219
0.000492967
0.000650605
0.000828304
0.00102008
0.00121973
0.00142057
0.00161768
0.0018064
0.0019835
0.00214789
0.00228482
0.00246417
3.78871e-14
8.6647e-14
2.50459e-13
7.41789e-13
2.19364e-12
6.45725e-12
1.89037e-11
5.49914e-11
1.58843e-10
4.55332e-10
1.29433e-09
3.64273e-09
1.01145e-08
2.75568e-08
7.31512e-08
1.87803e-07
4.63181e-07
1.09143e-06
2.44818e-06
5.21543e-06
1.05432e-05
2.02214e-05
3.68229e-05
6.37193e-05
0.000104938
0.000164694
0.000246812
0.000353788
0.0004863
0.000642445
0.000818337
0.00100802
0.00120529
0.00140351
0.00159766
0.0017831
0.00195643
0.00211734
0.00225068
0.00242674
3.77891e-14
8.64241e-14
2.49796e-13
7.39668e-13
2.18648e-12
6.43185e-12
1.88093e-11
5.46348e-11
1.57508e-10
4.50445e-10
1.27701e-09
3.58335e-09
9.91988e-09
2.69504e-08
7.13795e-08
1.82983e-07
4.51082e-07
1.06355e-06
2.38942e-06
5.10228e-06
1.03441e-05
1.99012e-05
3.63506e-05
6.30836e-05
0.000104151
0.000163771
0.000245748
0.000352502
0.000484555
0.000639852
0.000814365
0.00100206
0.0011967
0.00139181
0.00158248
0.00176431
0.00193393
0.00209133
0.00222131
0.00239338
3.77759e-14
8.63921e-14
2.49679e-13
7.39146e-13
2.18402e-12
6.42056e-12
1.876e-11
5.44286e-11
1.56687e-10
4.47318e-10
1.2657e-09
3.5444e-09
9.79317e-09
2.65626e-08
7.0274e-08
1.8007e-07
4.44052e-07
1.04814e-06
2.35901e-06
5.04905e-06
1.02619e-05
1.97952e-05
3.62541e-05
6.30565e-05
0.000104283
0.000164171
0.00024648
0.000353533
0.000485695
0.000640701
0.000814299
0.00100038
0.00119277
0.00138515
0.00157277
0.00175151
0.00191812
0.00207273
0.00220018
0.0023694
3.77717e-14
8.63815e-14
2.4963e-13
7.38903e-13
2.18274e-12
6.41394e-12
1.87296e-11
5.42986e-11
1.56166e-10
4.45338e-10
1.25857e-09
3.52004e-09
9.71478e-09
2.63268e-08
6.96163e-08
1.7839e-07
4.40161e-07
1.04013e-06
2.3445e-06
5.02723e-06
1.02393e-05
1.97925e-05
3.6311e-05
6.32496e-05
0.000104715
0.000164963
0.000247716
0.000355214
0.000487664
0.000642641
0.000815756
0.0010008
0.0011916
0.00138194
0.00156725
0.00174363
0.00190787
0.00206022
0.00218566
0.00235254
3.77866e-14
8.64144e-14
2.49721e-13
7.39095e-13
2.18291e-12
6.41301e-12
1.87206e-11
5.42491e-11
1.55943e-10
4.44437e-10
1.25523e-09
3.50851e-09
9.67765e-09
2.6216e-08
6.93127e-08
1.77638e-07
4.38508e-07
1.03702e-06
2.33994e-06
5.02347e-06
1.02443e-05
1.98256e-05
3.64118e-05
6.34834e-05
0.000105171
0.000165735
0.000248876
0.000356765
0.000489501
0.000644547
0.000817363
0.00100177
0.00119149
0.00138053
0.0015643
0.00173909
0.00190168
0.00205246
0.00217654
0.00234181
3.77999e-14
8.64465e-14
2.49797e-13
7.39263e-13
2.18314e-12
6.41252e-12
1.87149e-11
5.42178e-11
1.55802e-10
4.4388e-10
1.25318e-09
3.50153e-09
9.65542e-09
2.61508e-08
6.91364e-08
1.77211e-07
4.37584e-07
1.03533e-06
2.33753e-06
5.02182e-06
1.02478e-05
1.98468e-05
3.64718e-05
6.36219e-05
0.00010543
0.000166183
0.000249524
0.000357669
0.000490528
0.000645692
0.000818311
0.00100251
0.00119155
0.00138013
0.00156306
0.001737
0.00189878
0.00204883
0.00217229
0.00233682
2.26014e-19
5.18352e-19
1.50619e-18
4.50029e-18
1.34816e-17
4.03708e-17
1.20753e-16
3.6059e-16
1.07436e-15
3.19174e-15
9.44785e-15
2.78458e-14
8.16656e-14
2.38207e-13
6.90665e-13
1.98883e-12
5.67813e-12
1.60307e-11
4.46013e-11
1.2179e-10
3.24978e-10
8.44037e-10
2.12622e-09
5.18031e-09
1.21795e-08
2.75874e-08
6.01255e-08
1.25986e-07
2.53636e-07
4.90452e-07
9.10547e-07
1.62307e-06
2.77678e-06
4.56135e-06
7.19093e-06
1.08909e-05
1.58069e-05
2.22234e-05
2.91315e-05
4.29724e-05
2.25972e-19
5.18287e-19
1.50606e-18
4.49983e-18
1.34793e-17
4.03652e-17
1.20756e-16
3.60658e-16
1.0748e-15
3.19375e-15
9.45598e-15
2.78755e-14
8.17671e-14
2.38528e-13
6.91615e-13
1.99124e-12
5.68412e-12
1.60381e-11
4.4602e-11
1.21694e-10
3.24428e-10
8.41812e-10
2.11866e-09
5.15709e-09
1.2115e-08
2.74201e-08
5.97264e-08
1.25085e-07
2.51757e-07
4.86708e-07
9.03646e-07
1.61084e-06
2.75688e-06
4.52978e-06
7.14475e-06
1.08271e-05
1.57237e-05
2.21208e-05
2.90142e-05
4.28448e-05
2.25881e-19
5.18073e-19
1.50544e-18
4.49823e-18
1.34764e-17
4.03647e-17
1.20785e-16
3.60877e-16
1.07591e-15
3.19858e-15
9.47491e-15
2.79444e-14
8.20021e-14
2.39277e-13
6.93844e-13
1.99732e-12
5.69826e-12
1.60682e-11
4.46247e-11
1.21583e-10
3.23623e-10
8.38213e-10
2.10573e-09
5.11667e-09
1.20008e-08
2.71235e-08
5.9012e-08
1.23479e-07
2.48373e-07
4.80003e-07
8.91159e-07
1.58884e-06
2.72041e-06
4.47233e-06
7.05948e-06
1.0707e-05
1.55642e-05
2.19192e-05
2.87771e-05
4.25714e-05
2.26097e-19
5.18571e-19
1.50692e-18
4.50298e-18
1.34927e-17
4.04254e-17
1.21018e-16
3.61777e-16
1.07932e-15
3.21113e-15
9.51965e-15
2.80981e-14
8.25085e-14
2.40871e-13
6.98596e-13
2.01064e-12
5.73194e-12
1.61462e-11
4.47485e-11
1.21681e-10
3.23052e-10
8.34326e-10
2.08998e-09
5.06409e-09
1.18464e-08
2.67131e-08
5.8008e-08
1.21195e-07
2.43521e-07
4.70326e-07
8.73011e-07
1.55674e-06
2.66689e-06
4.38805e-06
6.93417e-06
1.05309e-05
1.53308e-05
2.16262e-05
2.84352e-05
4.21814e-05
2.2621e-19
5.18834e-19
1.50764e-18
4.50502e-18
1.35e-17
4.0459e-17
1.21185e-16
3.62561e-16
1.08272e-15
3.22495e-15
9.5723e-15
2.82885e-14
8.31612e-14
2.42997e-13
7.05113e-13
2.02933e-12
5.78123e-12
1.62575e-11
4.4979e-11
1.21836e-10
3.22461e-10
8.29568e-10
2.06953e-09
4.99478e-09
1.16414e-08
2.61645e-08
5.66589e-08
1.18116e-07
2.36959e-07
4.57208e-07
8.48353e-07
1.51306e-06
2.59388e-06
4.27276e-06
6.76224e-06
1.02885e-05
1.50085e-05
2.122e-05
2.7961e-05
4.16439e-05
2.26497e-19
5.19504e-19
1.50973e-18
4.5114e-18
1.3519e-17
4.05221e-17
1.21429e-16
3.63592e-16
1.08714e-15
3.24325e-15
9.64424e-15
2.85565e-14
8.41064e-14
2.46156e-13
7.15102e-13
2.05888e-12
5.86264e-12
1.64582e-11
4.54075e-11
1.22578e-10
3.22693e-10
8.26547e-10
2.05047e-09
4.92193e-09
1.14134e-08
2.5536e-08
5.50845e-08
1.14477e-07
2.2913e-07
4.41446e-07
8.18554e-07
1.46001e-06
2.50488e-06
4.1318e-06
6.55168e-06
9.99131e-06
1.46138e-05
2.07226e-05
2.73815e-05
4.09881e-05
2.27318e-19
5.21371e-19
1.51506e-18
4.52684e-18
1.35668e-17
4.0679e-17
1.21981e-16
3.65651e-16
1.09507e-15
3.2737e-15
9.75897e-15
2.89746e-14
8.55726e-14
2.51083e-13
7.30867e-13
2.10664e-12
5.99764e-12
1.68119e-11
4.62234e-11
1.24257e-10
3.25126e-10
8.26828e-10
2.03811e-09
4.85713e-09
1.11863e-08
2.4871e-08
5.3361e-08
1.10409e-07
2.20267e-07
4.23461e-07
7.84389e-07
1.39901e-06
2.40231e-06
3.96911e-06
6.30833e-06
9.64739e-06
1.4156e-05
2.0144e-05
2.67051e-05
4.0211e-05
2.27114e-19
5.20818e-19
1.51338e-18
4.52487e-18
1.35754e-17
4.07614e-17
1.22434e-16
3.67757e-16
1.10421e-15
3.31117e-15
9.90665e-15
2.95303e-14
8.75798e-14
2.58016e-13
7.53687e-13
2.17768e-12
6.20567e-12
1.73758e-11
4.76259e-11
1.27294e-10
3.30953e-10
8.33909e-10
2.03617e-09
4.81059e-09
1.09772e-08
2.42055e-08
5.1552e-08
1.06017e-07
2.10483e-07
4.03258e-07
7.4559e-07
1.32952e-06
2.28583e-06
3.7858e-06
6.03697e-06
9.26821e-06
1.36567e-05
1.95191e-05
2.59854e-05
3.93959e-05
2.26761e-19
5.20199e-19
1.5125e-18
4.52664e-18
1.35968e-17
4.08949e-17
1.23087e-16
3.70699e-16
1.11665e-15
3.36204e-15
1.01082e-14
3.03011e-14
9.04231e-14
2.68092e-13
7.87669e-13
2.28692e-12
6.5376e-12
1.8298e-11
4.99484e-11
1.32492e-10
3.40976e-10
8.50475e-10
2.05187e-09
4.79165e-09
1.08247e-08
2.36211e-08
4.99012e-08
1.02008e-07
2.01794e-07
3.86054e-07
7.13773e-07
1.27392e-06
2.19385e-06
3.6419e-06
5.82515e-06
8.97608e-06
1.3283e-05
1.90691e-05
2.54924e-05
3.88833e-05
2.26975e-19
5.2092e-19
1.51523e-18
4.53624e-18
1.36352e-17
4.10812e-17
1.23956e-16
3.74681e-16
1.13366e-15
3.43237e-15
1.03883e-14
3.13861e-14
9.44859e-14
2.82797e-13
8.39175e-13
2.45872e-12
7.05207e-12
1.96595e-11
5.32898e-11
1.40145e-10
3.56493e-10
8.77203e-10
2.08881e-09
4.81933e-09
1.07896e-08
2.34442e-08
4.94159e-08
1.00918e-07
1.99616e-07
3.81964e-07
7.06845e-07
1.2636e-06
2.18109e-06
3.63105e-06
5.82707e-06
9.0083e-06
1.33701e-05
1.92409e-05
2.57735e-05
3.93438e-05
2.27138e-19
5.21153e-19
1.51604e-18
4.5406e-18
1.36649e-17
4.12494e-17
1.24856e-16
3.79043e-16
1.15373e-15
3.51902e-15
1.07508e-14
3.28393e-14
1.00146e-13
3.03908e-13
9.20295e-13
2.70899e-12
7.79945e-12
2.19214e-11
6.13892e-11
1.80824e-10
5.45446e-10
1.52846e-09
3.67961e-09
7.71605e-09
1.51449e-08
2.9539e-08
5.82471e-08
1.15047e-07
2.24338e-07
4.26988e-07
7.88221e-07
1.40595e-06
2.42013e-06
4.01387e-06
6.40894e-06
9.84873e-06
1.45233e-05
2.07544e-05
2.76272e-05
4.16382e-05
2.26907e-19
5.20501e-19
1.51448e-18
4.53931e-18
1.36847e-17
4.13973e-17
1.25793e-16
3.83704e-16
1.17693e-15
3.62202e-15
1.12111e-14
3.47416e-14
1.07993e-13
3.35975e-13
1.02352e-12
3.03358e-12
1.24343e-11
1.70943e-10
1.49588e-09
7.04472e-09
2.08617e-08
4.44118e-08
7.1169e-08
9.04896e-08
1.03721e-07
1.20143e-07
1.53022e-07
2.24872e-07
3.71943e-07
6.50243e-07
1.14404e-06
1.97374e-06
3.3024e-06
5.33172e-06
8.29184e-06
1.24145e-05
1.78446e-05
2.48566e-05
3.23508e-05
4.69541e-05
2.27005e-19
5.2077e-19
1.51575e-18
4.54663e-18
1.37297e-17
4.16388e-17
1.27059e-16
3.89746e-16
1.2058e-15
3.75242e-15
1.17975e-14
3.73046e-14
1.1894e-13
3.84864e-13
1.10432e-12
2.13306e-11
1.95287e-09
2.02709e-08
8.17062e-08
1.94939e-07
3.34405e-07
4.51282e-07
5.12195e-07
5.06633e-07
4.91066e-07
4.91985e-07
5.27652e-07
6.50049e-07
9.21471e-07
1.42574e-06
2.27768e-06
3.62705e-06
5.65733e-06
8.57547e-06
1.25842e-05
1.786e-05
2.44261e-05
3.24723e-05
4.06185e-05
5.54651e-05
2.26378e-19
5.19429e-19
1.51281e-18
4.54376e-18
1.37477e-17
4.18432e-17
1.28255e-16
3.96442e-16
1.23815e-15
3.90979e-15
1.25235e-14
4.06914e-14
1.33671e-13
4.61762e-13
1.31705e-12
6.34692e-09
1.07367e-07
3.75985e-07
7.29613e-07
1.00708e-06
1.16707e-06
1.15308e-06
1.10562e-06
1.06637e-06
1.08132e-06
1.16605e-06
1.39435e-06
1.84261e-06
2.59204e-06
3.73968e-06
5.41019e-06
7.75885e-06
1.09583e-05
1.51856e-05
2.05568e-05
2.71547e-05
3.48017e-05
4.3622e-05
5.19442e-05
6.60579e-05
2.25795e-19
5.1795e-19
1.50913e-18
4.5353e-18
1.37552e-17
4.1984e-17
1.29475e-16
4.02926e-16
1.27517e-15
4.08015e-15
1.34431e-14
4.46764e-14
1.5647e-13
5.5191e-13
1.90211e-12
2.98361e-07
9.87074e-07
1.39105e-06
1.64842e-06
1.64352e-06
1.56698e-06
1.4102e-06
1.44066e-06
1.6455e-06
2.15284e-06
3.08422e-06
4.46144e-06
6.16397e-06
8.08193e-06
1.02532e-05
1.28631e-05
1.61722e-05
2.04171e-05
2.57758e-05
3.22309e-05
3.97432e-05
4.78536e-05
5.67079e-05
6.43852e-05
7.66009e-05
6.66752e-20
4.70612e-19
1.52588e-18
4.57412e-18
1.38396e-17
4.22699e-17
1.30989e-16
4.10414e-16
1.31509e-15
4.27619e-15
1.44796e-14
4.95727e-14
1.87339e-13
6.78832e-13
3.45719e-12
2.72751e-06
2.11504e-06
1.69735e-06
1.71677e-06
1.52444e-06
1.26706e-06
1.38892e-06
2.1036e-06
4.09277e-06
7.96162e-06
1.32983e-05
1.83311e-05
2.19052e-05
2.44043e-05
2.64024e-05
2.85114e-05
3.12823e-05
3.50945e-05
4.01417e-05
4.63031e-05
5.34936e-05
6.09449e-05
6.89457e-05
7.52724e-05
8.50803e-05
6.31698e-20
4.60873e-19
1.51707e-18
4.57472e-18
1.38613e-17
4.25132e-17
1.32156e-16
4.18054e-16
1.35015e-15
4.48493e-15
1.5438e-14
5.55387e-14
2.1784e-13
8.85226e-13
6.17564e-12
6.86473e-06
1.8191e-06
2.84847e-05
7.23637e-05
9.66996e-05
9.59552e-05
9.20323e-05
8.39765e-05
7.24029e-05
6.27314e-05
6.03859e-05
6.15557e-05
6.51581e-05
7.04926e-05
7.73759e-05
8.25626e-05
9.0631e-05
2.2631e-19
5.19139e-19
1.51367e-18
4.55881e-18
1.38739e-17
4.27033e-17
1.33282e-16
4.24324e-16
1.38251e-15
4.65921e-15
1.63404e-14
6.07735e-14
2.45933e-13
1.07588e-12
8.03809e-12
7.59565e-06
8.09802e-06
8.49555e-05
0.000146317
0.000144592
0.000134923
0.000114388
8.90284e-05
7.083e-05
6.4641e-05
6.48794e-05
6.69992e-05
7.15724e-05
7.70518e-05
8.36022e-05
8.76772e-05
9.41683e-05
2.26162e-19
5.19185e-19
1.51422e-18
4.56214e-18
1.38984e-17
4.28493e-17
1.34111e-16
4.2868e-16
1.40606e-15
4.78375e-15
1.70318e-14
6.4655e-14
2.70082e-13
1.23944e-12
9.9243e-12
8.60347e-06
1.05565e-05
0.000103446
0.000154837
0.0001475
0.000128935
0.000100819
7.54817e-05
6.48795e-05
6.43049e-05
6.60156e-05
7.0002e-05
7.58229e-05
8.13631e-05
8.75537e-05
9.06703e-05
9.60066e-05
2.25986e-19
5.18836e-19
1.51354e-18
4.56e-18
1.38985e-17
4.28806e-17
1.34465e-16
4.30749e-16
1.41888e-15
4.84901e-15
1.74095e-14
6.66253e-14
2.82355e-13
1.31713e-12
1.07746e-11
8.79219e-06
1.18537e-05
0.000111357
0.000158501
0.00014787
0.000123784
9.18875e-05
6.9367e-05
6.40125e-05
6.45757e-05
6.72424e-05
7.19654e-05
7.80673e-05
8.33714e-05
8.9286e-05
9.18791e-05
9.66709e-05
2.25984e-19
5.18829e-19
1.51352e-18
4.55994e-18
1.38982e-17
4.28799e-17
1.34463e-16
4.30743e-16
1.41886e-15
4.84893e-15
1.74093e-14
6.66243e-14
2.82353e-13
1.31712e-12
1.07745e-11
8.79217e-06
1.18538e-05
0.000111358
0.000158503
0.000147872
0.000123786
9.18888e-05
6.93683e-05
6.40137e-05
6.45766e-05
6.72433e-05
7.19662e-05
7.80679e-05
8.33718e-05
8.92862e-05
9.18792e-05
9.66716e-05
2.26211e-19
5.19295e-19
1.51455e-18
4.56321e-18
1.39021e-17
4.28602e-17
1.34148e-16
4.28793e-16
1.40647e-15
4.78497e-15
1.70372e-14
6.4665e-14
2.70212e-13
1.23861e-12
9.92562e-12
8.60391e-06
1.05569e-05
0.00010345
0.000154842
0.000147505
0.000128939
0.000100822
7.54838e-05
6.48819e-05
6.43073e-05
6.60184e-05
7.00051e-05
7.58264e-05
8.13666e-05
8.75576e-05
9.06739e-05
9.601e-05
2.26041e-19
5.1881e-19
1.51298e-18
4.55682e-18
1.38685e-17
4.26871e-17
1.33241e-16
4.24194e-16
1.38225e-15
4.65835e-15
1.63418e-14
6.07713e-14
2.46153e-13
1.07476e-12
8.0373e-12
7.59695e-06
8.09838e-06
8.49601e-05
0.000146324
0.000144598
0.000134929
0.000114392
8.90318e-05
7.08335e-05
6.46476e-05
6.48859e-05
6.70058e-05
7.15787e-05
7.70576e-05
8.36078e-05
8.76823e-05
9.41737e-05
2.26196e-19
5.19163e-19
1.51368e-18
4.55529e-18
1.3844e-17
4.24934e-17
1.32116e-16
4.17917e-16
1.34979e-15
4.48378e-15
1.54375e-14
5.55294e-14
2.18051e-13
8.8404e-13
6.17748e-12
6.86436e-06
1.81931e-06
2.84888e-05
7.23733e-05
9.67076e-05
9.59623e-05
9.20388e-05
8.39835e-05
7.24118e-05
6.27379e-05
6.03912e-05
6.1561e-05
6.51631e-05
7.04967e-05
7.73794e-05
8.25655e-05
9.06351e-05
2.26462e-19
5.19554e-19
1.51442e-18
4.5507e-18
1.38194e-17
4.22529e-17
1.30977e-16
4.10436e-16
1.31519e-15
4.27678e-15
1.44835e-14
4.95685e-14
1.87748e-13
6.77524e-13
3.45528e-12
2.72809e-06
2.11509e-06
1.69773e-06
1.71717e-06
1.52523e-06
1.26755e-06
1.38926e-06
2.10404e-06
4.09372e-06
7.96381e-06
1.33021e-05
1.83358e-05
2.19096e-05
2.44079e-05
2.64055e-05
2.85145e-05
3.12858e-05
3.5099e-05
4.01474e-05
4.63101e-05
5.35016e-05
6.09532e-05
6.89547e-05
7.52806e-05
8.50877e-05
2.25835e-19
5.17953e-19
1.50912e-18
4.53461e-18
1.3755e-17
4.1981e-17
1.29488e-16
4.02934e-16
1.27549e-15
4.08054e-15
1.34508e-14
4.46761e-14
1.5673e-13
5.5236e-13
1.89761e-12