/*--------------------------------*- C++ -*----------------------------------*\
| =========                 |                                                 |
| \\      /  F ield         | OpenFOAM: The Open Source CFD Toolbox           |
|  \\    /   O peration     | Version:  2412                                  |
|   \\  /    A nd           | Website:  www.openfoam.com                      |
|    \\/     M anipulation  |                                                 |
\*---------------------------------------------------------------------------*/
FoamFile
{
    version     2.0;
    format      ascii;
    arch        "LSB;label=32;scalar=64";
    class       volScalarField;
    location    "5";
    object      alpha4;
}
// * * * * * * * * * * * * * * * * * * * * * * * * * * * * * * * * * * * * * //

dimensions      [0 0 0 0 0 0 0];

internalField   nonuniform List<scalar> 
47360
(
2.41529e-14
5.52814e-14
1.60031e-13
4.74981e-13
1.40869e-12
4.16173e-12
1.22366e-11
3.57759e-11
1.03929e-10
2.9986e-10
8.58989e-10
2.44076e-09
6.86232e-09
1.9005e-08
5.15227e-08
1.35755e-07
3.45229e-07
8.42145e-07
1.96138e-06
4.3466e-06
9.14415e-06
1.82403e-05
3.44838e-05
6.17953e-05
0.000105031
0.000169506
0.000260114
0.000380292
0.000530898
0.000709803
0.000911723
0.00112951
0.00135474
0.00158017
0.00179882
0.00200633
0.0021981
0.00237483
0.00251902
0.00270957
2.41294e-14
5.52271e-14
1.59883e-13
4.74585e-13
1.40768e-12
4.15939e-12
1.22318e-11
3.57687e-11
1.03936e-10
2.9996e-10
8.59509e-10
2.44283e-09
6.86954e-09
1.90273e-08
5.15851e-08
1.35906e-07
3.45538e-07
8.4265e-07
1.96163e-06
4.34467e-06
9.13606e-06
1.82137e-05
3.44173e-05
6.16503e-05
0.00010476
0.000169035
0.000259406
0.000379277
0.000529659
0.00070833
0.000910288
0.00112812
0.00135386
0.00157958
0.00179896
0.00200716
0.0021997
0.00237711
0.00252184
0.00271304
2.41328e-14
5.52353e-14
1.59912e-13
4.74695e-13
1.40814e-12
4.16144e-12
1.2241e-11
3.58089e-11
1.041e-10
3.00587e-10
8.61766e-10
2.45052e-09
6.89426e-09
1.91017e-08
5.17928e-08
1.36433e-07
3.46729e-07
8.44946e-07
1.96523e-06
4.34777e-06
9.13097e-06
1.81838e-05
3.43243e-05
6.14258e-05
0.000104306
0.00016823
0.000258135
0.00037747
0.000527346
0.000705658
0.000907554
0.00112567
0.0013521
0.00157883
0.00179952
0.00200897
0.00220298
0.00238185
0.00252786
0.00272059
2.4209e-14
5.54102e-14
1.60426e-13
4.76249e-13
1.4129e-12
4.17646e-12
1.22889e-11
3.59623e-11
1.04595e-10
3.02195e-10
8.66975e-10
2.46718e-09
6.94613e-09
1.92562e-08
5.22256e-08
1.37555e-07
3.49374e-07
8.50499e-07
1.97532e-06
4.36263e-06
9.14548e-06
1.81757e-05
3.42505e-05
6.12085e-05
0.000103812
0.000167295
0.000256602
0.000375243
0.000524471
0.000702346
0.000904214
0.0011228
0.0013503
0.00157851
0.0018011
0.00201259
0.00220871
0.00238964
0.00253752
0.00273248
2.41951e-14
5.53792e-14
1.60345e-13
4.76065e-13
1.41256e-12
4.17698e-12
1.22975e-11
3.60157e-11
1.04873e-10
3.0344e-10
8.72005e-10
2.486e-09
7.01148e-09
1.94676e-08
5.28582e-08
1.39294e-07
3.53729e-07
8.60329e-07
1.99508e-06
4.39731e-06
9.19633e-06
1.82333e-05
3.42754e-05
6.11166e-05
0.000103483
0.000166572
0.000255332
0.000373319
0.000521935
0.000699456
0.000901446
0.00112078
0.00134969
0.00157994
0.001805
0.00201915
0.00221798
0.00240145
0.00255168
0.0027493
2.40918e-14
5.51425e-14
1.5967e-13
4.74214e-13
1.40798e-12
4.16675e-12
1.2283e-11
3.60384e-11
1.05166e-10
3.05066e-10
8.79166e-10
2.51402e-09
7.11186e-09
1.98011e-08
5.3882e-08
1.42194e-07
3.61254e-07
8.78136e-07
2.03328e-06
4.4713e-06
9.32503e-06
1.84321e-05
3.45437e-05
6.1419e-05
0.000103738
0.000166646
0.000255088
0.000372689
0.000520995
0.000698452
0.000900866
0.00112126
0.00135194
0.00158449
0.00181225
0.00202925
0.00223106
0.00241739
0.00257043
0.00277146
2.40662e-14
5.50826e-14
1.59515e-13
4.73906e-13
1.40791e-12
4.17056e-12
1.2311e-11
3.61875e-11
1.05861e-10
3.08019e-10
8.9096e-10
2.55839e-09
7.26942e-09
2.03274e-08
5.55238e-08
1.46948e-07
3.73949e-07
9.0928e-07
2.10337e-06
4.61604e-06
9.59966e-06
1.89112e-05
3.5313e-05
6.25538e-05
0.000105276
0.000168576
0.000257351
0.00037523
0.000523827
0.000701704
0.000904774
0.0011261
0.00135804
0.00159214
0.00182181
0.00204101
0.00224563
0.00243504
0.00259177
0.00279738
2.4121e-14
5.52058e-14
1.59851e-13
4.74896e-13
1.41139e-12
4.18421e-12
1.2368e-11
3.64289e-11
1.06883e-10
3.12209e-10
9.07615e-10
2.62159e-09
7.49877e-09
2.11132e-08
5.80513e-08
1.54496e-07
3.94824e-07
9.62644e-07
2.22884e-06
4.8872e-06
1.01354e-05
1.98788e-05
3.69131e-05
6.49871e-05
0.00010868
0.000172955
0.000262565
0.0003809
0.000529394
0.000706498
0.000908214
0.00112795
0.00135848
0.00159177
0.00182167
0.00204232
0.00224979
0.00244244
0.00260312
0.00281201
2.41144e-14
5.51948e-14
1.59824e-13
4.74868e-13
1.41203e-12
4.19173e-12
1.24159e-11
3.66899e-11
1.0811e-10
3.17599e-10
9.2988e-10
2.7098e-09
7.83067e-09
2.22953e-08
6.19835e-08
1.6669e-07
4.30107e-07
1.0553e-06
2.44784e-06
5.3504e-06
1.1024e-05
2.14312e-05
3.94151e-05
6.87202e-05
0.000113881
0.000179776
0.000271004
0.000391017
0.000541249
0.000720181
0.000923633
0.00114457
0.00137554
0.00160832
0.00183688
0.00205501
0.00225878
0.00244585
0.0026019
0.00280154
2.3915e-14
5.47514e-14
1.58628e-13
4.7182e-13
1.40531e-12
4.18234e-12
1.24343e-11
3.69285e-11
1.09532e-10
3.24608e-10
9.60643e-10
2.83828e-09
8.32944e-09
2.41338e-08
6.83042e-08
1.87329e-07
4.90464e-07
1.20461e-06
2.7822e-06
6.04619e-06
1.23885e-05
2.40577e-05
4.44796e-05
7.84905e-05
0.000132183
0.000212058
0.000323327
0.000468058
0.000644717
0.000847408
0.00106699
0.00129293
0.00151706
0.00173153
0.00193246
0.0021186
0.0022919
0.00245089
0.00258618
0.00275595
2.3855e-14
5.46182e-14
1.58394e-13
4.719e-13
1.40922e-12
4.20689e-12
1.25656e-11
3.75245e-11
1.12246e-10
3.36112e-10
1.00906e-09
3.0352e-09
9.0999e-09
2.70215e-08
7.8921e-08
2.21963e-07
5.81344e-07
1.44108e-06
3.42374e-06
8.06988e-06
1.89799e-05
4.29035e-05
8.8934e-05
0.000165591
0.000278682
0.000429224
0.000610855
0.000811687
0.00101956
0.00122358
0.00141322
0.00158358
0.00173727
0.00188017
0.00201798
0.00214882
0.00227029
0.00237864
0.00247181
0.00257831
2.40136e-14
5.49778e-14
1.59483e-13
4.75487e-13
1.42229e-12
4.2564e-12
1.27758e-11
3.8379e-11
1.16035e-10
3.51569e-10
1.0767e-09
3.31005e-09
1.0242e-08
3.15288e-08
9.68055e-08
2.72807e-07
7.54104e-07
2.90954e-06
1.30122e-05
4.40185e-05
0.000111641
0.000225278
0.000380906
0.000565815
0.000765155
0.000964232
0.00114839
0.00130904
0.00143855
0.0015404
0.00163269
0.00172119
0.00180292
0.0018708
0.0019281
0.00198083
0.00203294
0.00208173
0.00212062
0.00217496
2.41528e-14
5.53055e-14
1.60365e-13
4.78405e-13
1.43265e-12
4.30363e-12
1.29873e-11
3.9357e-11
1.2046e-10
3.70949e-10
1.16354e-09
3.69009e-09
1.18686e-08
3.9217e-08
1.21149e-07
4.09822e-07
6.05333e-06
4.55725e-05
0.000151297
0.000321346
0.000531602
0.000743808
0.000937852
0.00111177
0.00125024
0.00134685
0.00142897
0.00150197
0.00154977
0.00156462
0.00156504
0.0015611
0.00155404
0.00154321
0.00154632
0.0015599
0.00158813
0.00163355
0.00168479
0.00179979
2.43307e-14
5.57236e-14
1.61498e-13
4.82325e-13
1.44517e-12
4.36032e-12
1.32076e-11
4.04467e-11
1.2519e-10
3.9358e-10
1.26828e-09
4.2012e-09
1.41816e-08
5.2297e-08
1.55317e-07
9.75712e-06
0.000116989
0.000362051
0.000627261
0.000864919
0.00103486
0.00113427
0.0012233
0.00131757
0.00137004
0.00137707
0.00136538
0.00132949
0.00128035
0.00122361
0.00116895
0.0011652
0.00117824
0.0012139
0.00127274
0.00135358
0.00145073
0.00156783
0.00167277
0.00184685
2.44195e-14
5.58607e-14
1.61929e-13
4.83018e-13
1.45019e-12
4.38121e-12
1.33491e-11
4.12208e-11
1.29534e-10
4.1609e-10
1.39595e-09
4.82036e-09
1.7892e-08
7.20376e-08
2.47526e-07
0.000220569
0.000644959
0.000854817
0.000991056
0.00113193
0.00116047
0.00116461
0.00115169
0.00110124
0.00104065
0.0010417
0.00105256
0.00106716
0.00110343
0.00116777
0.00124286
0.00131211
0.00136995
0.00142499
0.00148483
0.00155976
0.00164587
0.001753
0.00184475
0.00201836
2.3985e-14
5.48712e-14
1.59329e-13
4.75788e-13
1.43509e-12
4.35075e-12
1.33877e-11
4.17584e-11
1.33816e-10
4.41772e-10
1.54556e-09
5.62387e-09
2.36554e-08
9.95581e-08
4.37798e-07
0.00141425
0.00109268
0.000885764
0.000793033
0.000564873
0.000236954
0.000161761
0.000234426
0.00053287
0.000911742
0.00145377
0.00187501
0.00189151
0.00183607
0.00174552
0.0016766
0.0016793
0.00169944
0.00174024
0.00179513
0.00186768
0.00194263
0.00203943
0.00210391
0.00224334
2.3798e-14
5.44886e-14
1.58328e-13
4.7423e-13
1.43277e-12
4.37296e-12
1.35302e-11
4.27927e-11
1.38993e-10
4.72993e-10
1.69981e-09
6.68677e-09
2.98917e-08
1.39516e-07
7.0854e-07
0.00308383
0.000196528
0.00175485
0.0026477
0.00288972
0.00286268
0.00277205
0.00265614
0.00254313
0.00241663
0.00229178
0.00220142
0.00220572
0.00222206
0.00228081
0.00230607
0.00240044
2.38251e-14
5.45598e-14
1.58552e-13
4.753e-13
1.43772e-12
4.40261e-12
1.36845e-11
4.36641e-11
1.43631e-10
4.99361e-10
1.85008e-09
7.68044e-09
3.57824e-08
1.80543e-07
8.85855e-07
0.00326153
0.000437353
0.00271025
0.00365957
0.00360283
0.00338438
0.00318299
0.00292938
0.00265323
0.00242598
0.00230946
0.00229136
0.00230844
0.00232658
0.00239244
0.00238281
0.00244572
2.36661e-14
5.4228e-14
1.57665e-13
4.72915e-13
1.43275e-12
4.39969e-12
1.37369e-11
4.41419e-11
1.4667e-10
5.18597e-10
1.96378e-09
8.47712e-09
4.11238e-08
2.14092e-07
1.06698e-06
0.00353438
0.000499002
0.00295783
0.00378092
0.00349272
0.00320666
0.00294772
0.00264869
0.00239982
0.00227699
0.0022726
0.00228312
0.00232613
0.00235044
0.00241636
0.0023847
0.00244525
2.38614e-14
5.46571e-14
1.58819e-13
4.76219e-13
1.44336e-12
4.43211e-12
1.38619e-11
4.46175e-11
1.49022e-10
5.29615e-10
2.03004e-09
8.86666e-09
4.33209e-08
2.2646e-07
1.11707e-06
0.00349202
0.000540837
0.00310688
0.00385079
0.00344719
0.00310322
0.00277758
0.0024613
0.00227765
0.00224225
0.00226007
0.00228431
0.00233817
0.00235769
0.0024176
0.00237504
0.00243682
2.3861e-14
5.46561e-14
1.58816e-13
4.76209e-13
1.44332e-12
4.432e-12
1.38616e-11
4.46161e-11
1.49018e-10
5.29596e-10
2.02996e-09
8.86628e-09
4.33187e-08
2.26447e-07
1.11701e-06
0.00349198
0.000540832
0.00310697
0.0038509
0.00344726
0.00310326
0.00277762
0.00246132
0.00227766
0.00224225
0.00226006
0.00228429
0.00233815
0.00235766
0.00241757
0.002375
0.00243679
2.36647e-14
5.42252e-14
1.57656e-13
4.72883e-13
1.43276e-12
4.39976e-12
1.37365e-11
4.41412e-11
1.46671e-10
5.18606e-10
1.96379e-09
8.47643e-09
4.11242e-08
2.13956e-07
1.06668e-06
0.0035343
0.00049898
0.00295808
0.00378122
0.00349294
0.00320683
0.00294785
0.00264877
0.00239987
0.00227702
0.00227264
0.00228315
0.00232614
0.00235042
0.00241632
0.00238465
0.0024452
2.38232e-14
5.45554e-14
1.58541e-13
4.75273e-13
1.43758e-12
4.40233e-12
1.36847e-11
4.36657e-11
1.43644e-10
4.99415e-10
1.85049e-09
7.68079e-09
3.57995e-08
1.80345e-07
8.85389e-07
0.00326146
0.000437351
0.00271064
0.00366009
0.00360327
0.00338473
0.00318326
0.00292956
0.00265336
0.00242614
0.00230956
0.00229144
0.00230852
0.00232666
0.00239249
0.00238283
0.00244572
2.37942e-14
5.44807e-14
1.58303e-13
4.74181e-13
1.43272e-12
4.37248e-12
1.35286e-11
4.27873e-11
1.38977e-10
4.72951e-10
1.69975e-09
6.68644e-09
2.99058e-08
1.39343e-07
7.08197e-07
0.00308375
0.000196588
0.00175545
0.00264852
0.00289036
0.00286326
0.00277255
0.0026566
0.00254356
0.00241698
0.00229212
0.00220175
0.00220604
0.00222236
0.0022811
0.00230631
0.00240061
2.40364e-14
5.49897e-14
1.59677e-13
4.76759e-13
1.43795e-12
4.35995e-12
1.3416e-11
4.18486e-11
1.34089e-10
4.42587e-10
1.54792e-09
5.62867e-09
2.36975e-08
9.93966e-08
4.37505e-07
0.00141419
0.00109264
0.000885706
0.000793002
0.000565014
0.000237171
0.000161836
0.000234357
0.000532473
0.000911353
0.00145379
0.00187544
0.001892
0.00183654
0.00174594
0.00167699
0.0016797
0.00169987
0.00174071
0.00179561
0.00186816
0.00194308
0.00203982
0.00210425
0.00224364
2.43455e-14
5.56929e-14
1.61455e-13
4.81619e-13
1.44622e-12
4.36986e-12
1.33195e-11
4.1141e-11
1.2935e-10
4.15685e-10
1.39568e-09
4.81899e-09
1.79208e-08
7.1925e-08
2.4735e-07
0.000220597
0.000644814
0.000854748
0.000991003
0.00113184
0.0011606
0.00116475
0.0011519
0.00110155
0.00104112
0.00104226
0.00105324
0.00106789
0.00110412
0.00116834
0.00124332
0.00131255
0.00137043
0.00142554
0.0014854
0.00156034
0.00164642
0.00175348
0.00184516
0.00201871
2.42744e-14
5.55943e-14
1.6112e-13
4.81214e-13
1.44185e-12
4.35025e-12
1.31754e-11
4.03454e-11
1.24885e-10
3.92688e-10
1.26599e-09
4.19465e-09
1.41816e-08
5.22174e-08
1.55128e-07
9.75683e-06
0.000116954
0.000361971
0.000627142
0.000864739
0.00103478
0.00113431
0.0012233
0.00131753
0.00137008
0.00137712
0.00136548
0.00132972
0.00128072
0.00122411
0.00116959
0.00116589
0.00117894
0.00121462
0.00127347
0.0013543
0.00145141
0.00156845
0.00167339
0.00184748
2.41622e-14
5.53286e-14
1.60426e-13
4.78586e-13
1.43308e-12
4.30452e-12
1.29869e-11
3.93458e-11
1.2039e-10
3.70667e-10
1.16251e-09
3.68672e-09
1.18627e-08
3.91713e-08
1.21102e-07
4.09262e-07
6.05001e-06
4.55603e-05
0.000151261
0.00032127
0.000531477
0.000743664
0.000937712
0.00111164
0.00125018
0.00134682
0.00142891
0.00150187
0.00154963
0.00156449
0.00156498
0.00156112
0.00155418
0.00154364
0.00154688
0.00156064
0.00158903
0.0016346
0.0016859
0.00180087
2.40106e-14
5.49716e-14
1.59469e-13
4.75464e-13
1.4223e-12
4.25665e-12
1.27771e-11
3.83849e-11
1.16053e-10
3.51626e-10
1.07683e-09
3.31004e-09
1.02434e-08
3.15119e-08
9.67662e-08
2.72788e-07
7.53578e-07
2.90737e-06
1.30035e-05
4.39922e-05
0.000111576
0.000225155
0.000380736
0.000565621
0.000764945
0.000964023
0.00114819
0.00130885
0.00143839
0.00154022
0.00163242
0.0017208
0.00180244
0.00187034
0.00192774
0.00198061
0.0020329
0.00208199
0.00212125
0.00217615
2.38421e-14
5.45906e-14
1.58324e-13
4.71668e-13
1.40851e-12
4.20492e-12
1.25613e-11
3.75177e-11
1.12245e-10
3.36151e-10
1.00928e-09
3.03577e-09
9.10209e-09
2.70245e-08
7.88955e-08
2.21872e-07
5.81229e-07
1.4405e-06
3.4216e-06
8.06328e-06
1.89614e-05
4.28574e-05
8.884e-05
0.000165431
0.000278445
0.000428909
0.000610477
0.000811267
0.00101911
0.00122309
0.00141269
0.00158299
0.00173659
0.00187933
0.00201694
0.00214764
0.00226908
0.00237757
0.00247085
0.00257799
2.3911e-14
5.47404e-14
1.58595e-13
4.71731e-13
1.40517e-12
4.18231e-12
1.24335e-11
3.69284e-11
1.09537e-10
3.24637e-10
9.60766e-10
2.83867e-09
8.33033e-09
2.41361e-08
6.8303e-08
1.87267e-07
4.90186e-07
1.20393e-06
2.7806e-06
6.04226e-06
1.23792e-05
2.40371e-05
4.44375e-05
7.84112e-05
0.000132045
0.00021184
0.00032301
0.000467632
0.00064418
0.000846762
0.00106624
0.00129206
0.00151605
0.00173038
0.00193117
0.00211717
0.0022903
0.00244923
0.00258447
0.00275451
2.41091e-14
5.5185e-14
1.59791e-13
4.74764e-13
1.41173e-12
4.19082e-12
1.24145e-11
3.6685e-11
1.08098e-10
3.17571e-10
9.29831e-10
2.70972e-09
7.83037e-09
2.22937e-08
6.19765e-08
1.66655e-07
4.29949e-07
1.05471e-06
2.44607e-06
5.34617e-06
1.10152e-05
2.14141e-05
3.93835e-05
6.86651e-05
0.00011379
0.000179635
0.000270797
0.000390731
0.000540873
0.000719704
0.000923047
0.00114386
0.0013747
0.00160733
0.00183572
0.0020537
0.00225735
0.00244434
0.00260033
0.00280007
2.41181e-14
5.51984e-14
1.59838e-13
4.74896e-13
1.41133e-12
4.18392e-12
1.23671e-11
3.64263e-11
1.06876e-10
3.12187e-10
9.07553e-10
2.6214e-09
7.4981e-09
2.11104e-08
5.80401e-08
1.54455e-07
3.94689e-07
9.62221e-07
2.22763e-06
4.88405e-06
1.0128e-05
1.98633e-05
3.68838e-05
6.49368e-05
0.000108601
0.000172837
0.000262401
0.000380685
0.000529124
0.000706176
0.000907841
0.00112752
0.00135799
0.00159122
0.00182104
0.00204159
0.00224895
0.00244151
0.00260213
0.00281103
2.40636e-14
5.50768e-14
1.59505e-13
4.73883e-13
1.4078e-12
4.17033e-12
1.23107e-11
3.61874e-11
1.05863e-10
3.08029e-10
8.90988e-10
2.55842e-09
7.26924e-09
2.03257e-08
5.55152e-08
1.46913e-07
3.73828e-07
9.08911e-07
2.10236e-06
4.61355e-06
9.59405e-06
1.88995e-05
3.52906e-05
6.2514e-05
0.000105211
0.000168476
0.000257211
0.000375045
0.000523598
0.000701438
0.000904481
0.00112579
0.00135771
0.00159179
0.00182144
0.00204063
0.00224522
0.00243463
0.00259135
0.00279697
2.40786e-14
5.51131e-14
1.59586e-13
4.73932e-13
1.40705e-12
4.16493e-12
1.228e-11
3.60317e-11
1.05158e-10
3.05058e-10
8.79166e-10
2.51402e-09
7.11168e-09
1.97997e-08
5.38751e-08
1.42165e-07
3.61153e-07
8.77826e-07
2.03243e-06
4.4692e-06
9.32029e-06
1.84225e-05
3.45251e-05
6.13871e-05
0.000103682
0.000166565
0.000254983
0.000372548
0.000520818
0.00069824
0.000900633
0.00112102
0.00135171
0.00158426
0.00181203
0.00202904
0.00223087
0.00241722
0.00257028
0.00277134
2.41909e-14
5.53701e-14
1.60317e-13
4.75998e-13
1.41237e-12
4.17603e-12
1.22953e-11
3.60125e-11
1.04865e-10
3.03422e-10
8.71965e-10
2.48589e-09
7.0111e-09
1.94661e-08
5.28517e-08
1.39269e-07
3.53645e-07
8.60074e-07
1.99438e-06
4.39558e-06
9.19267e-06
1.82243e-05
3.42583e-05
6.10925e-05
0.000103443
0.000166514
0.000255242
0.000373201
0.000521795
0.000699296
0.000901271
0.00112059
0.0013495
0.00157977
0.00180484
0.002019
0.00221784
0.00240133
0.00255158
0.00274924
2.42172e-14
5.54289e-14
1.60483e-13
4.76449e-13
1.41352e-12
4.17789e-12
1.22914e-11
3.59658e-11
1.04598e-10
3.02196e-10
8.6697e-10
2.46716e-09
6.94596e-09
1.92552e-08
5.22209e-08
1.37536e-07
3.49309e-07
8.50299e-07
1.97481e-06
4.36113e-06
9.14186e-06
1.81707e-05
3.42404e-05
6.11857e-05
0.000103777
0.000167242
0.000256528
0.000375147
0.000524355
0.000702213
0.000904072
0.00112266
0.00135015
0.00157837
0.00180097
0.00201247
0.0022086
0.00238955
0.00253745
0.00273245
2.41324e-14
5.52348e-14
1.59911e-13
4.747e-13
1.40816e-12
4.16149e-12
1.22411e-11
3.58087e-11
1.04098e-10
3.00581e-10
8.61746e-10
2.45045e-09
6.89399e-09
1.91006e-08
5.17884e-08
1.36418e-07
3.46676e-07
8.4481e-07
1.96474e-06
4.34662e-06
9.1293e-06
1.81795e-05
3.43152e-05
6.14106e-05
0.000104281
0.000168194
0.000258083
0.000377403
0.000527265
0.000705563
0.000907451
0.00112556
0.00135199
0.00157873
0.00179943
0.00200888
0.00220291
0.00238179
0.00252782
0.00272057
2.41286e-14
5.52252e-14
1.59878e-13
4.74569e-13
1.40764e-12
4.15924e-12
1.22315e-11
3.57687e-11
1.03934e-10
2.99957e-10
8.59499e-10
2.44278e-09
6.86934e-09
1.90265e-08
5.15821e-08
1.35896e-07
3.45511e-07
8.42523e-07
1.96137e-06
4.34429e-06
9.13448e-06
1.82108e-05
3.44121e-05
6.16408e-05
0.000104744
0.000169011
0.000259373
0.000379234
0.000529606
0.000708269
0.000910223
0.00112805
0.0013538
0.00157952
0.00179891
0.00200711
0.00219966
0.00237708
0.00252182
0.00271302
2.41532e-14
5.5282e-14
1.60033e-13
4.74987e-13
1.4087e-12
4.1618e-12
1.22366e-11
3.57753e-11
1.03928e-10
2.99859e-10
8.58984e-10
2.44074e-09
6.86224e-09
1.90046e-08
5.15215e-08
1.35751e-07
3.45212e-07
8.42128e-07
1.96134e-06
4.34629e-06
9.14359e-06
1.82393e-05
3.44818e-05
6.17919e-05
0.000105026
0.000169498
0.000260103
0.000380278
0.000530881
0.000709784
0.000911703
0.0011295
0.00135472
0.00158016
0.0017988
0.00200632
0.00219809
0.00237482
0.00251901
0.00270957
2.3383e-19
5.36492e-19
1.55954e-18
4.6613e-18
1.39677e-17
4.18408e-17
1.2522e-16
3.74259e-16
1.11654e-15
3.32284e-15
9.85813e-15
2.91371e-14
8.57486e-14
2.51156e-13
7.31777e-13
2.11902e-12
6.08788e-12
1.73049e-11
4.84864e-11
1.33329e-10
3.58197e-10
9.36249e-10
2.37184e-09
5.80662e-09
1.37052e-08
3.11329e-08
6.79807e-08
1.42566e-07
2.86985e-07
5.54341e-07
1.02722e-06
1.82612e-06
3.11371e-06
5.09479e-06
7.99599e-06
1.2052e-05
1.74027e-05
2.43297e-05
3.17335e-05
4.6307e-05
2.3405e-19
5.37024e-19
1.56113e-18
4.66595e-18
1.3982e-17
4.18894e-17
1.25393e-16
3.74861e-16
1.11857e-15
3.32955e-15
9.88002e-15
2.92073e-14
8.59693e-14
2.51827e-13
7.33749e-13
2.1245e-12
6.10219e-12
1.73389e-11
4.85656e-11
1.3345e-10
3.5826e-10
9.35606e-10
2.36838e-09
5.79351e-09
1.36645e-08
3.10192e-08
6.76947e-08
1.41893e-07
2.85529e-07
5.51348e-07
1.02151e-06
1.81565e-06
3.09615e-06
5.06574e-06
7.95242e-06
1.199e-05
1.73196e-05
2.42247e-05
3.1612e-05
4.61794e-05
2.34696e-19
5.385e-19
1.56542e-18
4.679e-18
1.40221e-17
4.20138e-17
1.25783e-16
3.76135e-16
1.12262e-15
3.34251e-15
9.92223e-15
2.93401e-14
8.638e-14
2.53061e-13
7.37306e-13
2.13433e-12
6.12597e-12
1.73948e-11
4.86619e-11
1.33542e-10
3.57953e-10
9.33257e-10
2.35847e-09
5.75997e-09
1.35651e-08
3.07529e-08
6.70401e-08
1.404e-07
2.8236e-07
5.45039e-07
1.00976e-06
1.79498e-06
3.06202e-06
5.01239e-06
7.87386e-06
1.18798e-05
1.71747e-05
2.40432e-05
3.13996e-05
4.59353e-05
2.34374e-19
5.37754e-19
1.56314e-18
4.67184e-18
1.39998e-17
4.19477e-17
1.25608e-16
3.7571e-16
1.12193e-15
3.34262e-15
9.92844e-15
2.93778e-14
8.65389e-14
2.53624e-13
7.39067e-13
2.13889e-12
6.13697e-12
1.74063e-11
4.86064e-11
1.33199e-10
3.56227e-10
9.2668e-10
2.33633e-09
5.69283e-09
1.33794e-08
3.02776e-08
6.59093e-08
1.37883e-07
2.77104e-07
5.34714e-07
9.90652e-07
1.7616e-06
3.00698e-06
4.92645e-06
7.7473e-06
1.17033e-05
1.69421e-05
2.37534e-05
3.10645e-05
4.55627e-05
2.34669e-19
5.38429e-19
1.56494e-18
4.67687e-18
1.40141e-17
4.19925e-17
1.25762e-16
3.7629e-16
1.12425e-15
3.35205e-15
9.96567e-15
2.9518e-14
8.70351e-14
2.55279e-13
7.44203e-13
2.15384e-12
6.17527e-12
1.74955e-11
4.87556e-11
1.33247e-10
3.55458e-10
9.2123e-10
2.31463e-09
5.62105e-09
1.31694e-08
2.97191e-08
6.454e-08
1.34764e-07
2.70472e-07
5.21484e-07
9.65842e-07
1.71775e-06
2.93392e-06
4.81155e-06
7.57678e-06
1.14644e-05
1.6627e-05
2.33596e-05
3.0609e-05
4.5055e-05
2.34215e-19
5.37405e-19
1.56239e-18
4.67138e-18
1.40082e-17
4.20189e-17
1.25981e-16
3.77387e-16
1.12895e-15
3.37062e-15
1.00355e-14
2.97701e-14
8.7906e-14
2.58153e-13
7.53209e-13
2.18023e-12
6.24795e-12
1.76681e-11
4.91451e-11
1.33751e-10
3.55372e-10
9.17304e-10
2.29382e-09
5.54507e-09
1.29356e-08
2.90802e-08
6.29493e-08
1.31104e-07
2.62632e-07
5.05771e-07
9.36296e-07
1.66547e-06
2.84681e-06
4.67458e-06
7.37367e-06
1.11797e-05
1.62513e-05
2.2889e-05
3.00632e-05
4.44415e-05
2.34142e-19
5.37253e-19
1.56223e-18
4.67148e-18
1.40104e-17
4.20426e-17
1.2619e-16
3.78631e-16
1.13493e-15
3.39566e-15
1.01325e-14
3.01249e-14
8.91486e-14
2.6232e-13
7.66529e-13
2.22052e-12
6.36143e-12
1.7964e-11
4.98043e-11
1.35114e-10
3.5678e-10
9.16141e-10
2.27725e-09
5.47126e-09
1.26902e-08
2.8379e-08
6.11575e-08
1.26919e-07
2.5359e-07
4.87567e-07
9.01976e-07
1.60467e-06
2.7454e-06
4.51509e-06
7.1373e-06
1.0849e-05
1.58159e-05
2.23451e-05
2.94349e-05
4.3734e-05
2.35608e-19
5.4054e-19
1.57138e-18
4.69786e-18
1.40899e-17
4.22883e-17
1.26982e-16
3.81381e-16
1.14506e-15
3.43354e-15
1.02733e-14
3.06348e-14
9.09425e-14
2.68403e-13
7.86289e-13
2.28143e-12
6.53781e-12
1.84347e-11
5.09511e-11
1.37472e-10
3.6111e-10
9.18993e-10
2.26792e-09
5.40609e-09
1.24405e-08
2.7627e-08
5.9182e-08
1.2223e-07
2.43342e-07
4.66741e-07
8.62549e-07
1.53499e-06
2.63013e-06
4.33596e-06
6.87523e-06
1.04869e-05
1.53444e-05
2.17623e-05
2.87716e-05
4.30014e-05
2.35135e-19
5.39539e-19
1.56859e-18
4.69266e-18
1.40899e-17
4.23468e-17
1.2737e-16
3.83307e-16
1.15376e-15
3.47115e-15
1.04284e-14
3.12412e-14
9.32054e-14
2.76449e-13
8.13422e-13
2.36807e-12
6.79856e-12
1.91577e-11
5.27762e-11
1.41577e-10
3.68706e-10
9.30785e-10
2.26995e-09
5.35995e-09
1.22239e-08
2.69192e-08
5.72549e-08
1.17626e-07
2.33433e-07
4.47226e-07
8.2677e-07
1.4733e-06
2.52982e-06
4.18229e-06
6.65409e-06
1.01892e-05
1.49704e-05
2.13184e-05
2.82915e-05
4.25107e-05
2.33686e-19
5.36377e-19
1.56011e-18
4.6714e-18
1.40433e-17
4.22966e-17
1.27538e-16
3.85086e-16
1.16364e-15
3.51783e-15
1.06295e-14
3.2056e-14
9.63463e-14
2.87976e-13
8.53549e-13
2.50301e-12
7.21571e-12
2.03046e-11
5.56195e-11
1.47952e-10
3.81195e-10
9.5067e-10
2.29515e-09
5.36283e-09
1.21383e-08
2.66036e-08
5.64414e-08
1.15802e-07
2.29705e-07
4.40146e-07
8.14409e-07
1.45354e-06
2.50132e-06
4.14608e-06
6.61652e-06
1.01625e-05
1.49765e-05
2.13851e-05
2.8444e-05
4.28093e-05
2.34159e-19
5.37506e-19
1.56394e-18
4.68352e-18
1.40888e-17
4.24935e-17
1.28454e-16
3.89222e-16
1.18164e-15
3.5928e-15
1.09356e-14
3.32605e-14
1.00989e-13
3.05084e-13
9.16332e-13
2.72261e-12
7.83779e-12
2.20159e-11
6.00415e-11
1.58636e-10
4.07113e-10
1.01244e-09
2.43621e-09
5.67677e-09
1.28295e-08
2.81273e-08
5.97818e-08
1.22968e-07
2.44553e-07
4.69632e-07
8.70286e-07
1.55443e-06
2.67509e-06
4.43048e-06
7.05719e-06
1.08086e-05
1.58731e-05
2.25706e-05
2.99043e-05
4.46172e-05
2.35103e-19
5.39524e-19
1.57012e-18
4.70285e-18
1.41556e-17
4.27302e-17
1.29454e-16
3.93568e-16
1.20169e-15
3.67888e-15
1.13138e-14
3.47852e-14
1.07292e-13
3.28806e-13
1.01559e-12
3.01273e-12
8.80276e-12
2.88485e-11
1.21411e-10
4.93537e-10
1.49336e-09
3.3334e-09
6.15724e-09
1.09016e-08
2.02078e-08
3.97511e-08
8.0524e-08
1.62517e-07
3.20277e-07
6.10064e-07
1.11907e-06
1.9736e-06
3.34614e-06
5.4501e-06
8.52934e-06
1.28284e-05
1.8502e-05
2.58325e-05
3.36749e-05
4.88717e-05
2.35495e-19
5.40437e-19
1.57374e-18
4.71875e-18
1.42261e-17
4.30237e-17
1.30697e-16
3.98928e-16
1.22582e-15
3.78505e-15
1.17855e-14
3.68026e-14
1.15703e-13
3.67089e-13
1.11726e-12
3.59098e-12
1.15142e-10
1.39935e-09
6.6634e-09
1.82146e-08
3.34343e-08
4.5559e-08
5.27044e-08
5.92525e-08
7.25736e-08
1.04679e-07
1.75927e-07
3.19825e-07
5.89365e-07
1.06376e-06
1.85675e-06
3.1211e-06
5.04878e-06
7.86121e-06
1.17854e-05
1.70278e-05
2.36512e-05
3.18679e-05
4.02913e-05
5.57609e-05
2.34798e-19
5.38926e-19
1.56983e-18
4.71144e-18
1.42305e-17
4.31645e-17
1.31638e-16
4.04341e-16
1.25127e-15
3.91191e-15
1.23445e-14
3.94496e-14
1.26592e-13
4.26792e-13
1.16854e-12
4.66104e-10
1.14051e-08
4.64611e-08
1.00807e-07
1.49269e-07
1.76812e-07
1.81447e-07
1.83737e-07
1.97299e-07
2.41332e-07
3.43887e-07
5.46248e-07
9.04624e-07
1.4943e-06
2.41633e-06
3.80174e-06
5.81983e-06
8.66452e-06
1.25463e-05
1.76313e-05
2.40561e-05
3.17068e-05
4.07305e-05
4.94608e-05
6.44935e-05
2.34569e-19
5.38396e-19
1.56828e-18
4.70761e-18
1.42436e-17
4.3281e-17
1.32745e-16
4.0971e-16
1.28258e-15
4.04977e-15
1.30585e-14
4.25854e-14
1.42198e-13
4.98331e-13
1.51028e-12
4.19975e-08
1.66625e-07
2.55396e-07
3.08846e-07
3.04605e-07
2.89129e-07
2.90521e-07
3.30526e-07
4.70169e-07
7.85719e-07
1.32503e-06
2.12438e-06
3.18428e-06
4.49601e-06
6.13164e-06
8.264e-06
1.11345e-05
1.49797e-05
1.9999e-05
2.62368e-05
3.37049e-05
4.20475e-05
5.13848e-05
5.98218e-05
7.34779e-05
6.76232e-20
4.91804e-19
1.58003e-18
4.72662e-18
1.42804e-17
4.3403e-17
1.33832e-16
4.14857e-16
1.31454e-15
4.19365e-15
1.3871e-14
4.60712e-14
1.64386e-13
5.81149e-13
2.26319e-12
5.8416e-07
4.64196e-07
3.71184e-07
3.43207e-07
3.04804e-07
2.86307e-07
3.25777e-07
5.56674e-07
1.2314e-06
2.69959e-06
5.2266e-06
8.39417e-06
1.1512e-05
1.42786e-05
1.66983e-05
1.90732e-05
2.18822e-05
2.55745e-05
3.05085e-05
3.67659e-05
4.43648e-05
5.26651e-05
6.17696e-05
6.94452e-05
8.12239e-05
6.52209e-20
4.83848e-19
1.57522e-18
4.72727e-18
1.42967e-17
4.36128e-17
1.34765e-16
4.2129e-16
1.34114e-15
4.35698e-15
1.45805e-14
5.03501e-14
1.85685e-13
7.08491e-13
3.54476e-12
1.76531e-06
1.80228e-07
7.69478e-06
3.14744e-05
6.23412e-05
7.36709e-05
7.25027e-05
6.78025e-05
5.92085e-05
5.07491e-05
4.86777e-05
5.00056e-05
5.42422e-05
6.08786e-05
6.93638e-05
7.64007e-05
8.67397e-05
2.34557e-19
5.38256e-19
1.56871e-18
4.71401e-18
1.43076e-17
4.3789e-17
1.35614e-16
4.26504e-16
1.36578e-15
4.49478e-15
1.52352e-14
5.41478e-14
2.04086e-13
8.27393e-13
4.3628e-12
1.9396e-06
8.14393e-07
2.21556e-05
7.53899e-05
0.000104055
0.000102534
9.37135e-05
7.69153e-05
5.99764e-05
5.25824e-05
5.26183e-05
5.48165e-05
6.01257e-05
6.72132e-05
7.55952e-05
8.17328e-05
9.04203e-05
2.34073e-19
5.37475e-19
1.56712e-18
4.71208e-18
1.43164e-17
4.38719e-17
1.36202e-16
4.29815e-16
1.38422e-15
4.5908e-15
1.57473e-14
5.68923e-14
2.19665e-13
9.25911e-13
5.14244e-12
2.21541e-06
1.15956e-06
2.85804e-05
9.04669e-05
0.000109263
0.00010409
8.95799e-05
6.91538e-05
5.47322e-05
5.22826e-05
5.34874e-05
5.74025e-05
6.41746e-05
7.168e-05
7.98083e-05
8.50171e-05
9.23949e-05
2.34201e-19
5.37809e-19
1.56834e-18
4.71546e-18
1.43327e-17
4.3942e-17
1.36621e-16
4.31771e-16
1.3952e-15
4.64235e-15
1.60326e-14
5.82926e-14
2.27785e-13
9.731e-13
5.50016e-12
2.28037e-06
1.3248e-06
3.15701e-05
9.63221e-05
0.000111744
0.00010463
8.65954e-05
6.45796e-05
5.31447e-05
5.25101e-05
5.43237e-05
5.90793e-05
6.63953e-05
7.38797e-05
8.17451e-05
8.64382e-05
9.32173e-05
2.34124e-19
5.37634e-19
1.56782e-18
4.71392e-18
1.4328e-17
4.39277e-17
1.36578e-16
4.31638e-16
1.39478e-15
4.64104e-15
1.60284e-14
5.82784e-14
2.27738e-13
9.72921e-13
5.49942e-12
2.28036e-06
1.32478e-06
3.15699e-05
9.63216e-05
0.000111743
0.000104629
8.65938e-05
6.45776e-05
5.31417e-05
5.25061e-05
5.43197e-05
5.90751e-05
6.63908e-05
7.38751e-05
8.17406e-05
8.64343e-05
9.32144e-05
2.34109e-19
5.37558e-19
1.56737e-18
4.71281e-18
1.43189e-17
4.38792e-17
1.3623e-16
4.29886e-16
1.3845e-15
4.59138e-15
1.57508e-14
5.68946e-14
2.19753e-13
9.25382e-13
5.1419e-12
2.21558e-06
1.15952e-06
2.858e-05
9.04652e-05
0.00010926
0.000104086
8.95766e-05
6.91506e-05
5.47281e-05
5.22791e-05
5.3484e-05
5.73991e-05
6.41717e-05
7.1678e-05
7.98078e-05
8.50174e-05
9.23962e-05
2.34379e-19
5.38046e-19
1.56835e-18
4.7129e-18
1.43049e-17
4.37802e-17
1.35597e-16
4.26438e-16
1.36577e-15
4.49449e-15
1.52381e-14
5.41466e-14
2.0424e-13
8.2687e-13
4.36042e-12
1.94006e-06
8.14375e-07
2.2155e-05
7.53877e-05
0.000104049
0.000102527
9.37064e-05
7.69071e-05
5.99664e-05
5.25739e-05
5.26092e-05
5.48086e-05
6.01198e-05
6.72106e-05
7.55974e-05
8.17387e-05
9.04301e-05
2.34435e-19
5.38234e-19
1.56843e-18
4.71111e-18
1.42932e-17
4.36277e-17
1.34812e-16
4.2139e-16
1.34149e-15
4.35784e-15
1.45856e-14
5.03552e-14
1.8588e-13
7.07766e-13
3.54523e-12
1.76509e-06
1.80218e-07
7.69465e-06
3.14738e-05
6.23389e-05
7.36652e-05
7.24964e-05
6.77971e-05
5.92066e-05
5.07478e-05
4.86752e-05
5.0003e-05
5.42387e-05
6.08731e-05
6.93561e-05
7.639e-05
8.67276e-05
2.33898e-19
5.36944e-19
1.56454e-18
4.69763e-18
1.42446e-17
4.33426e-17
1.33697e-16
4.14516e-16
1.3136e-15
4.1913e-15
1.38663e-14
4.60511e-14
1.64565e-13
5.80746e-13
2.25857e-12
5.84432e-07
4.64216e-07
3.71229e-07
3.43298e-07
3.04947e-07
2.86405e-07
3.25846e-07
5.5676e-07
1.23158e-06
2.70003e-06
5.2273e-06
8.39457e-06
1.15111e-05
1.4276e-05
1.66946e-05
1.90694e-05
2.1879e-05
2.55725e-05
3.05077e-05
3.67655e-05
4.4363e-05
5.26591e-05
6.17578e-05
6.94253e-05
8.11945e-05
2.34491e-19
5.38156e-19
1.56735e-18
4.70483e-18
1.4238e-17
4.32578e-17
1.32697e-16
4.09494e-16
1.28224e-15
4.04794e-15
1.30576e-14
4.2579e-14
1.42143e-13
5.00259e-13
1.50418e-12
4.20735e-08
1.66616e-07
2.55278e-07
3.08913e-07
3.04662e-07