/*--------------------------------*- C++ -*----------------------------------*\
| =========                 |                                                 |
| \\      /  F ield         | OpenFOAM: The Open Source CFD Toolbox           |
|  \\    /   O peration     | Version:  2412                                  |
|   \\  /    A nd           | Website:  www.openfoam.com                      |
|    \\/     M anipulation  |                                                 |
\*---------------------------------------------------------------------------*/
FoamFile
{
    version     2.0;
    format      ascii;
    arch        "LSB;label=32;scalar=64";
    class       volScalarField;
    location    "5";
    object      alpha1;
}
// * * * * * * * * * * * * * * * * * * * * * * * * * * * * * * * * * * * * * //

dimensions      [0 0 0 0 0 0 0];

internalField   nonuniform List<scalar> 
47360
(
5.79434e-13
1.31549e-12
3.74491e-12
1.08222e-11
3.08955e-11
8.68172e-11
2.39864e-10
6.51182e-10
1.73689e-09
4.55083e-09
1.17015e-08
2.94545e-08
7.22946e-08
1.7216e-07
3.9571e-07
8.7381e-07
1.84684e-06
3.72648e-06
7.16654e-06
1.31279e-05
2.2904e-05
3.80811e-05
6.03867e-05
9.14616e-05
0.0001325
0.000184014
0.0002455
0.000315654
0.000392231
0.000472929
0.00055511
0.000636869
0.000716369
0.000792189
0.000863374
0.000928529
0.000986927
0.00103764
0.00107775
0.00112288
5.78989e-13
1.31445e-12
3.74229e-12
1.08159e-11
3.08841e-11
8.68097e-11
2.39939e-10
6.51669e-10
1.7391e-09
4.55899e-09
1.1729e-08
2.95368e-08
7.25231e-08
1.72726e-07
3.97e-07
8.76375e-07
1.85142e-06
3.73311e-06
7.17439e-06
1.31316e-05
2.28955e-05
3.80445e-05
6.03123e-05
9.1327e-05
0.000132332
0.000183818
0.000245409
0.0003157
0.000392677
0.00047378
0.000556654
0.000639053
0.000719373
0.000796035
0.000868003
0.000933879
0.000992919
0.00104417
0.00108476
0.00113032
5.78982e-13
1.31449e-12
3.74275e-12
1.08197e-11
3.09067e-11
8.69208e-11
2.40417e-10
6.5354e-10
1.74585e-09
4.58167e-09
1.18001e-08
2.97449e-08
7.30878e-08
1.74136e-07
4.00219e-07
8.83019e-07
1.8637e-06
3.75306e-06
7.20199e-06
1.3162e-05
2.29158e-05
3.80324e-05
6.02439e-05
9.11917e-05
0.00013215
0.000183672
0.000245455
0.000316183
0.000393889
0.000476021
0.000560225
0.000644114
0.000726053
0.000804365
0.000877958
0.000945355
0.00100576
0.00105816
0.00109974
0.0011462
5.78799e-13
1.31413e-12
3.7424e-12
1.08224e-11
3.09322e-11
8.70692e-11
2.41107e-10
6.56383e-10
1.75647e-09
4.61851e-09
1.1919e-08
3.01025e-08
7.40865e-08
1.76712e-07
4.06332e-07
8.96261e-07
1.88986e-06
3.79981e-06
7.27776e-06
1.32724e-05
2.30622e-05
3.82089e-05
6.04466e-05
9.14306e-05
0.000132487
0.000184241
0.000246498
0.000318038
0.000396973
0.000480778
0.000567044
0.000653314
0.000737806
0.000818707
0.000894838
0.00096463
0.0010272
0.00108143
0.00112463
0.00117251
5.78529e-13
1.31357e-12
3.74163e-12
1.08261e-11
3.09704e-11
8.72957e-11
2.42169e-10
6.6082e-10
1.7732e-09
4.67754e-09
1.21121e-08
3.06961e-08
7.57795e-08
1.81206e-07
4.17337e-07
9.21122e-07
1.9416e-06
3.89925e-06
7.45479e-06
1.35652e-05
2.35141e-05
3.88651e-05
6.13586e-05
9.2675e-05
0.000134196
0.000186646
0.000249969
0.000323104
0.000404299
0.000491092
0.000581012
0.000671441
0.000760356
0.000845667
0.00092597
0.00099948
0.00106535
0.00112221
0.00116777
0.00121699
5.78896e-13
1.31442e-12
3.74501e-12
1.08429e-11
3.10557e-11
8.76992e-11
2.43921e-10
6.67837e-10
1.79932e-09
4.76923e-09
1.2414e-08
3.16379e-08
7.85193e-08
1.88685e-07
4.3625e-07
9.65697e-07
2.03924e-06
4.09783e-06
7.82739e-06
1.421e-05
2.45542e-05
4.04586e-05
6.3736e-05
9.62049e-05
0.000139489
0.000194637
0.000261921
0.000340446
0.000428374
0.000522609
0.000619922
0.000717125
0.000811799
0.000901431
0.000984969
0.00106089
0.00112878
0.0011867
0.00123345
0.00128079
5.79598e-13
1.316e-12
3.751e-12
1.08701e-11
3.11901e-11
8.83065e-11
2.46472e-10
6.77736e-10
1.83628e-09
4.8997e-09
1.28556e-08
3.3055e-08
8.28021e-08
2.00868e-07
4.68539e-07
1.04586e-06
2.22224e-06
4.47771e-06
8.54728e-06
1.5497e-05
2.68128e-05
4.44619e-05
7.09534e-05
0.000109044
0.000161109
0.000228238
0.000309243
0.000400567
0.000497926
0.000596
0.000691669
0.000782936
0.000869755
0.000952223
0.00102991
0.0011012
0.0011656
0.00122022
0.00126491
0.00130765
5.8204e-13
1.32131e-12
3.76553e-12
1.09166e-11
3.13553e-11
8.89546e-11
2.49238e-10
6.89192e-10
1.88224e-09
5.07256e-09
1.34828e-08
3.51776e-08
8.9617e-08
2.21336e-07
5.25864e-07
1.19255e-06
2.55693e-06
5.18475e-06
1.0019e-05
1.87279e-05
3.41384e-05
6.03381e-05
0.000101441
0.000159437
0.000232131
0.000314369
0.000400087
0.000483638
0.000563202
0.000641485
0.000718867
0.000794283
0.000866784
0.000935235
0.000999813
0.00105977
0.00111509
0.00116307
0.00120416
0.00124513
5.75818e-13
1.30793e-12
3.72963e-12
1.08346e-11
3.12097e-11
8.90275e-11
2.51088e-10
7.0134e-10
1.93908e-09
5.31475e-09
1.44187e-08
3.8545e-08
1.01102e-07
2.57562e-07
6.29907e-07
1.45916e-06
3.20677e-06
6.91893e-06
1.5114e-05
3.29112e-05
6.6222e-05
0.000117525
0.000182518
0.000253539
0.000323616
0.000388019
0.000449203
0.000509825
0.000568368
0.000621119
0.00066811
0.000711128
0.000752582
0.000794164
0.000837125
0.000881322
0.000926347
0.000970011
0.00100991
0.00105768
5.66962e-13
1.28907e-12
3.68265e-12
1.07416e-11
3.108e-11
8.93394e-11
2.54269e-10
7.2082e-10
2.02691e-09
5.69986e-09
1.59058e-08
4.42144e-08
1.21253e-07
3.22551e-07
8.23396e-07
2.03492e-06
5.28812e-06
1.50571e-05
3.9725e-05
8.49155e-05
0.00014561
0.000209977
0.000267867
0.000316029
0.000360382
0.000402383
0.000437514
0.000463474
0.000483245
0.000500734
0.000519157
0.000540623
0.000566759
0.000598327
0.000635653
0.00067785
0.000723385
0.000770125
0.000812513
0.000867892
5.64216e-13
1.28286e-12
3.67181e-12
1.07349e-11
3.12494e-11
9.05532e-11
2.61143e-10
7.52884e-10
2.16807e-09
6.29765e-09
1.82786e-08
5.38933e-08
1.56367e-07
4.45058e-07
1.29931e-06
4.26021e-06
1.63551e-05
5.02594e-05
0.000108717
0.000172207
0.000226898
0.000265738
0.000296028
0.000323916
0.000342306
0.000347571
0.000349738
0.000352974
0.000359653
0.000371387
0.000388917
0.00041244
0.000442112
0.000477575
0.000518227
0.000562709
0.000609006
0.00065554
0.000696212
0.000751298
5.69315e-13
1.29352e-12
3.70896e-12
1.08659e-11
3.18595e-11
9.30006e-11
2.72655e-10
7.99598e-10
2.37934e-09
7.16215e-09
2.2058e-08
7.01256e-08
2.19621e-07
7.6503e-07
3.24462e-06
1.51632e-05
5.86138e-05
0.000127036
0.000194899
0.000229697
0.000254026
0.000273151
0.000272373
0.000268634
0.000262672
0.000263782
0.000269173
0.000280411
0.000297172
0.000318842
0.000345766
0.000378075
0.000415666
0.000457351
0.000501607
0.000546299
0.000589654
0.000630632
0.00066433
0.00070967
5.81484e-13
1.32101e-12
3.78707e-12
1.11195e-11
3.27433e-11
9.65109e-11
2.87231e-10
8.60888e-10
2.65617e-09
8.35258e-09
2.79538e-08
9.73655e-08
3.63474e-07
2.03999e-06
1.09979e-05
5.27292e-05
0.000141729
0.000202836
0.000234204
0.000238536
0.000230473
0.000217998
0.000207081
0.000208383
0.000215743
0.000228845
0.000247965
0.000273377
0.000305539
0.00034402
0.000386741
0.000431307
0.000475418
0.000517198
0.000555131
0.000588602
0.000617782
0.000645271
0.000667921
0.000707648
5.91415e-13
1.34496e-12
3.85078e-12
1.13555e-11
3.35185e-11
1.0016e-10
3.01542e-10
9.30423e-10
2.97211e-09
9.95276e-09
3.70395e-08
1.47593e-07
8.01054e-07
6.72628e-06
3.12276e-05
0.00013371
0.0002197
0.000230229
0.000212715
0.000185525
0.000164759
0.000167831
0.000176454
0.000191637
0.000220754
0.000278441
0.000359542
0.000426378
0.000478633
0.000513105
0.000535776
0.000555114
0.000575816
0.000599221
0.000624618
0.000651205
0.000675435
0.000701127
0.000719478
0.000757336
5.99796e-13
1.36021e-12
3.89555e-12
1.14618e-11
3.40222e-11
1.02127e-10
3.1242e-10
9.9256e-10
3.31419e-09
1.21166e-08
5.12762e-08
2.5089e-07
2.10066e-06
1.81793e-05
6.45057e-05
0.000249177
0.00024349
0.000186533
0.000124149
0.000128409
0.000142313
0.000168917
0.000220801
0.000299825
0.000667838
0.00117635
0.00121886
0.00117905
0.00109151
0.000981228
0.000879459
0.000799232
0.000744316
0.00073762
0.000741935
0.000754894
0.000769689
0.000792263
0.000800963
0.000830928
5.70298e-13
1.29623e-12
3.72512e-12
1.10417e-11
3.31391e-11
1.0112e-10
3.17614e-10
1.04853e-09
3.71724e-09
1.51093e-08
7.23745e-08
4.60887e-07
4.89509e-06
3.66749e-05
0.000103527
0.00034556
0.000139425
2.93312e-05
4.05398e-05
0.000172021
0.000438456
0.000685672
0.000954253
0.00104731
0.00230617
0.0019092
0.00116616
0.000961113
0.000898788
0.000865511
0.000834857
0.000814622
0.000810342
0.000814801
0.000822734
0.000838596
0.000846745
0.000864355
0.000846262
0.000863203
5.52806e-13
1.25965e-12
3.63202e-12
1.08592e-11
3.28672e-11
1.02199e-10
3.28178e-10
1.12587e-09
4.21364e-09
1.86809e-08
1.01429e-07
7.9504e-07
8.89851e-06
5.78863e-05
0.000127467
0.000439978
0.00211432
0.00151108
0.00104567
0.000957402
0.000899404
0.000873977
0.000859878
0.000857393
0.000857977
0.000861189
0.000861594
0.000869345
0.000858872
0.000869193
0.000821133
0.000842804
5.56951e-13
1.268e-12
3.66081e-12
1.09469e-11
3.335e-11
1.04451e-10
3.41537e-10
1.20017e-09
4.71237e-09
2.23399e-08
1.35369e-07
1.17018e-06
1.33374e-05
7.2017e-05
0.000129754
0.000478434
0.00210198
0.00142435
0.00108017
0.000982196
0.000923461
0.000893109
0.000877188
0.00086654
0.000860756
0.000856976
0.000854399
0.000855773
0.00083048
0.000846352
0.000756682
0.000795049
5.5347e-13
1.2615e-12
3.64496e-12
1.09359e-11
3.34708e-11
1.05811e-10
3.50505e-10
1.25956e-09
5.10543e-09
2.5502e-08
1.6386e-07
1.52622e-06
1.67833e-05
8.16555e-05
0.000145011
0.000506959
0.00210074
0.00140165
0.00105655
0.000957369
0.000903634
0.00087194
0.000855202
0.000843248
0.00083496
0.000828019
0.000821057
0.000811437
0.000793471
0.000814542
0.000690039
0.000757109
5.69353e-13
1.29543e-12
3.73754e-12
1.11934e-11
3.42666e-11
1.08365e-10
3.60278e-10
1.30138e-09
5.34899e-09
2.71434e-08
1.79349e-07
1.66665e-06
1.76022e-05
8.40118e-05
0.000139579
0.000503624
0.00215268
0.00138602
0.00104009
0.000937439
0.000885369
0.000853309
0.000832701
0.000821879
0.000811699
0.000804835
0.000795848
0.00078624
0.000775098
0.000792038
0.000652376
0.000741721
5.69371e-13
1.29547e-12
3.73763e-12
1.11936e-11
3.42672e-11
1.08366e-10
3.60281e-10
1.30138e-09
5.349e-09
2.7143e-08
1.79346e-07
1.66662e-06
1.7601e-05
8.40101e-05
0.000139578
0.000503621
0.00215268
0.00138601
0.00104008
0.000937429
0.00088536
0.000853302
0.000832694
0.000821872
0.00081169
0.000804825
0.000795838
0.000786231
0.000775092
0.000792031
0.000652366
0.000741717
5.53487e-13
1.26154e-12
3.64527e-12
1.09372e-11
3.3474e-11
1.0582e-10
3.50531e-10
1.25963e-09
5.10556e-09
2.55005e-08
1.63834e-07
1.52598e-06
1.67811e-05
8.16497e-05
0.000145009
0.000506959
0.00210076
0.00140162
0.00105652
0.000957341
0.000903607
0.000871915
0.000855176
0.000843223
0.000834936
0.000827997
0.000821032
0.00081141
0.00079345
0.000814526
0.000690014
0.000757099
5.56924e-13
1.26797e-12
3.66068e-12
1.09468e-11
3.33519e-11
1.04462e-10
3.41582e-10
1.20035e-09
4.71293e-09
2.23407e-08
1.3535e-07
1.16987e-06
1.33353e-05
7.20082e-05
0.000129753
0.000478438
0.00210195
0.00142431
0.00108014
0.000982165
0.000923435
0.000893086
0.000877167
0.000866521
0.000860739
0.000856957
0.000854379
0.000855751
0.000830454
0.000846334
0.000756652
0.000795033
5.52786e-13
1.25964e-12
3.63197e-12
1.08597e-11
3.28707e-11
1.02208e-10
3.2822e-10
1.12603e-09
4.21438e-09
1.8682e-08
1.01419e-07
7.94796e-07
8.89657e-06
5.78829e-05
0.000127468
0.000439979
0.0021143
0.00151098
0.00104564
0.000957386
0.000899405
0.000873981
0.000859881
0.000857398
0.000857975
0.000861182
0.000861586
0.000869339
0.00085886
0.000869182
0.000821112
0.000842787
5.70278e-13
1.29622e-12
3.7253e-12
1.10414e-11
3.31407e-11
1.01141e-10
3.17665e-10
1.04871e-09
3.71793e-09
1.51116e-08
7.23683e-08
4.60729e-07
4.89386e-06
3.66635e-05
0.000103517
0.000345564
0.00013942
2.93236e-05
4.0538e-05
0.000172126
0.000438735
0.000685934
0.0009545
0.00104732
0.00230645
0.00190899
0.00116587
0.000961105
0.000898811
0.000865512
0.000834836
0.000814604
0.000810328
0.000814791
0.000822727
0.000838592
0.00084674
0.000864346
0.000846246
0.000863187
5.99779e-13
1.3602e-12
3.89564e-12
1.14628e-11
3.40245e-11
1.02139e-10
3.12495e-10
9.92861e-10
3.31517e-09
1.21201e-08
5.12811e-08
2.50804e-07
2.10009e-06
1.81686e-05
6.45084e-05
0.000249187
0.000243501
0.000186539
0.000124156
0.000128425
0.000142334
0.000168948
0.000220847
0.000299896
0.000668072
0.00117685
0.00121898
0.00117915
0.00109158
0.000981241
0.000879415
0.000799143
0.000744221
0.000737539
0.00074186
0.000754828
0.000769635
0.000792221
0.000800927
0.000830898
5.91359e-13
1.34488e-12
3.85077e-12
1.13562e-11
3.35201e-11
1.00166e-10
3.0158e-10
9.3062e-10
2.97306e-09
9.95601e-09
3.70523e-08
1.47576e-07
8.00846e-07
6.72059e-06
3.12217e-05
0.000133683
0.000219696
0.000230253
0.000212717
0.000185565
0.000164789
0.000167864
0.00017649
0.000191676
0.000220796
0.000278507
0.00035962
0.000426452
0.00047868
0.000513107
0.000535735
0.000555044
0.00057573
0.000599128
0.000624522
0.00065111
0.000675347
0.000701051
0.00071942
0.000757301
5.81515e-13
1.32113e-12
3.78753e-12
1.11213e-11
3.27494e-11
9.65286e-11
2.87293e-10
8.61072e-10
2.65695e-09
8.35525e-09
2.79649e-08
9.73944e-08
3.6348e-07
2.03814e-06
1.09967e-05
5.27087e-05
0.000141669
0.000202837
0.00023422
0.000238557
0.000230492
0.000218049
0.000207139
0.000208441
0.0002158
0.000228901
0.000248024
0.000273439
0.000305601
0.000344082
0.000386799
0.000431357
0.000475456
0.000517222
0.000555137
0.00058859
0.000617756
0.000645241
0.000667896
0.000707644
5.69399e-13
1.29376e-12
3.70981e-12
1.08688e-11
3.18691e-11
9.3031e-11
2.72753e-10
7.99896e-10
2.38027e-09
7.16518e-09
2.20671e-08
7.01576e-08
2.19736e-07
7.64828e-07
3.2444e-06
1.51581e-05
5.86028e-05
0.000126995
0.000194819
0.000229728
0.000254017
0.00027315
0.000272371
0.000268665
0.000262725
0.000263838
0.000269228
0.000280468
0.000297228
0.000318897
0.000345821
0.00037813
0.000415721
0.000457406
0.00050166
0.000546353
0.000589709
0.000630692
0.000664397
0.000709752
5.64206e-13
1.28284e-12
3.6722e-12
1.07371e-11
3.12554e-11
9.05735e-11
2.61215e-10
7.53142e-10
2.16893e-09
6.30062e-09
1.82876e-08
5.39185e-08
1.56464e-07
4.45303e-07
1.2997e-06
4.26075e-06
1.63515e-05
5.02455e-05
0.000108711
0.000172149
0.000226824
0.000265723
0.000296035
0.000323875
0.000342209
0.000347567
0.000349748
0.000352979
0.000359654
0.000371392
0.000388924
0.000412446
0.000442115
0.000477575
0.000518224
0.000562705
0.000609
0.000655535
0.000696208
0.0007513
5.66943e-13
1.28908e-12
3.68239e-12
1.07418e-11
3.10861e-11
8.93566e-11
2.5433e-10
7.2102e-10
2.02756e-09
5.70206e-09
1.59131e-08
4.42357e-08
1.21314e-07
3.22749e-07
8.23946e-07
2.03635e-06
5.28991e-06
1.50598e-05
3.97232e-05
8.49007e-05
0.000145589
0.00020992
0.000267793
0.000315977
0.000360337
0.000402303
0.000437383
0.000463336
0.000483095
0.000500579
0.000518997
0.000540461
0.000566594
0.000598161
0.000635485
0.000677678
0.000723209
0.000769945
0.00081233
0.000867711
5.75805e-13
1.30796e-12
3.72997e-12
1.08353e-11
3.12113e-11
8.90379e-11
2.5113e-10
7.01493e-10
1.93959e-09
5.31637e-09
1.44239e-08
3.85612e-08
1.01147e-07
2.57678e-07
6.30226e-07
1.4601e-06
3.20896e-06
6.9234e-06
1.51209e-05
3.29192e-05
6.62317e-05
0.000117534
0.000182512
0.000253499
0.000323539
0.000387942
0.000449135
0.000509731
0.000568205
0.00062092
0.000667859
0.000710836
0.000752259
0.000793822
0.00083677
0.000880959
0.000925975
0.000969631
0.00100952
0.0010573
5.82044e-13
1.32134e-12
3.7657e-12
1.09171e-11
3.13587e-11
8.89715e-11
2.4929e-10
6.89359e-10
1.88275e-09
5.07408e-09
1.34871e-08
3.51901e-08
8.96514e-08
2.21423e-07
5.26063e-07
1.19301e-06
2.55809e-06
5.18751e-06
1.00245e-05
1.87375e-05
3.4154e-05
6.03611e-05
0.00010147
0.000159473
0.000232167
0.00031439
0.000400073
0.000483596
0.000563166
0.000641425
0.000718802
0.0007942
0.000866669
0.000935097
0.000999648
0.00105958
0.00111488
0.00116286
0.00120394
0.00124491
5.79589e-13
1.31603e-12
3.75125e-12
1.08711e-11
3.11928e-11
8.83141e-11
2.46501e-10
6.77841e-10
1.83663e-09
4.90083e-09
1.28589e-08
3.30644e-08
8.28276e-08
2.00934e-07
4.68695e-07
1.04619e-06
2.22288e-06
4.47905e-06
8.55014e-06
1.55027e-05
2.68229e-05
4.44789e-05
7.09802e-05
0.000109085
0.000161167
0.000228317
0.000309345
0.000400681
0.000498041
0.00059611
0.000691764
0.000783022
0.000869853
0.000952327
0.00103002
0.00110133
0.00116573
0.00122036
0.00126505
0.0013078
5.78876e-13
1.3144e-12
3.74507e-12
1.08434e-11
3.10579e-11
8.77071e-11
2.43946e-10
6.67917e-10
1.79956e-09
4.76999e-09
1.24163e-08
3.16442e-08
7.8536e-08
1.88727e-07
4.36353e-07
9.65928e-07
2.03971e-06
4.09869e-06
7.82893e-06
1.42128e-05
2.45594e-05
4.04678e-05
6.37513e-05
9.62292e-05
0.000139527
0.000194692
0.000261998
0.00034055
0.00042851
0.000522778
0.000620122
0.000717353
0.000812045
0.000901692
0.000985243
0.00106118
0.00112908
0.001187
0.00123376
0.0012811
5.78521e-13
1.31359e-12
3.74181e-12
1.08267e-11
3.09725e-11
8.73028e-11
2.42192e-10
6.60888e-10
1.7734e-09
4.67812e-09
1.21137e-08
3.07005e-08
7.57905e-08
1.81232e-07
4.17398e-07
9.21253e-07
1.94188e-06
3.89977e-06
7.45572e-06
1.35668e-05
2.35167e-05
3.88694e-05
6.13658e-05
9.26869e-05
0.000134215
0.000186675
0.00025001
0.000323161
0.000404376
0.000491191
0.000581137
0.000671592
0.000760535
0.000845871
0.000926197
0.000999726
0.00106561
0.00112248
0.00116805
0.00121727
5.78794e-13
1.31412e-12
3.74238e-12
1.08226e-11
3.09334e-11
8.70739e-11
2.41124e-10
6.56435e-10
1.75662e-09
4.61895e-09
1.19202e-08
3.01056e-08
7.40941e-08
1.7673e-07
4.0637e-07
8.96339e-07
1.89002e-06
3.80009e-06
7.27827e-06
1.32733e-05
2.30637e-05
3.82112e-05
6.04503e-05
9.14366e-05
0.000132497
0.000184256
0.000246521
0.00031807
0.000397017
0.000480835
0.000567116
0.000653402
0.00073791
0.000818827
0.000894973
0.000964777
0.00102735
0.0010816
0.0011248
0.00117269
5.78979e-13
1.31449e-12
3.74283e-12
1.082e-11
3.09078e-11
8.69247e-11
2.40429e-10
6.53576e-10
1.74595e-09
4.58196e-09
1.18009e-08
2.97469e-08
7.30927e-08
1.74147e-07
4.00242e-07
8.83064e-07
1.86379e-06
3.75321e-06
7.20226e-06
1.31623e-05
2.29161e-05
3.80331e-05
6.02458e-05
9.11952e-05
0.000132155
0.000183679
0.000245467
0.000316203
0.000393916
0.000476056
0.000560269
0.000644168
0.000726117
0.000804439
0.00087804
0.000945445
0.00100586
0.00105826
0.00109985
0.0011463
5.78987e-13
1.31445e-12
3.74228e-12
1.08159e-11
3.08847e-11
8.68127e-11
2.39946e-10
6.51688e-10
1.73915e-09
4.55914e-09
1.17293e-08
2.95377e-08
7.25251e-08
1.72731e-07
3.97008e-07
8.76389e-07
1.85144e-06
3.73315e-06
7.17434e-06
1.31316e-05
2.2896e-05
3.80449e-05
6.03124e-05
9.13277e-05
0.000132335
0.000183823
0.000245416
0.000315709
0.000392692
0.000473801
0.000556682
0.000639087
0.000719413
0.000796082
0.000868055
0.000933936
0.00099298
0.00104424
0.00108483
0.00113039
5.79434e-13
1.31549e-12
3.74493e-12
1.08224e-11
3.08954e-11
8.68162e-11
2.39864e-10
6.51184e-10
1.7369e-09
4.55086e-09
1.17016e-08
2.94546e-08
7.22946e-08
1.72159e-07
3.95707e-07
8.73799e-07
1.84681e-06
3.72641e-06
7.16648e-06
1.31279e-05
2.29037e-05
3.80809e-05
6.03868e-05
9.14618e-05
0.000132501
0.000184016
0.000245504
0.000315661
0.000392239
0.000472941
0.000555128
0.000636891
0.000716396
0.000792221
0.000863411
0.00092857
0.00098697
0.00103768
0.0010778
0.00112293
2.21807e-18
5.07094e-18
1.46703e-17
4.36281e-17
1.30037e-16
3.87194e-16
1.15034e-15
3.40579e-15
1.00369e-14
2.94073e-14
8.55725e-14
2.47094e-13
7.0754e-13
2.00781e-12
5.64045e-12
1.56587e-11
4.28442e-11
1.15146e-10
3.02847e-10
7.76629e-10
1.93528e-09
4.6734e-09
1.09115e-08
2.45933e-08
5.34381e-08
1.11857e-07
2.25379e-07
4.36991e-07
8.14881e-07
1.46132e-06
2.51895e-06
4.17364e-06
6.64482e-06
1.01634e-05
1.49362e-05
2.1097e-05
2.86024e-05
3.75039e-05
4.63282e-05
6.13772e-05
2.2182e-18
5.07176e-18
1.46753e-17
4.36504e-17
1.30131e-16
3.87569e-16
1.15176e-15
3.41097e-15
1.00556e-14
2.94725e-14
8.57949e-14
2.47818e-13
7.09818e-13
2.01455e-12
5.65941e-12
1.57069e-11
4.29567e-11
1.15347e-10
3.03087e-10
7.76405e-10
1.93206e-09
4.65906e-09
1.08638e-08
2.44542e-08
5.30808e-08
1.11001e-07
2.23512e-07
4.33113e-07
8.07499e-07
1.44779e-06
2.49608e-06
4.13634e-06
6.58832e-06
1.00826e-05
1.48266e-05
2.09567e-05
2.84329e-05
3.73108e-05
4.61224e-05
6.11786e-05
2.22408e-18
5.08518e-18
1.47135e-17
4.37623e-17
1.30461e-16
3.88575e-16
1.15499e-15
3.42187e-15
1.00935e-14
2.96045e-14
8.62467e-14
2.49314e-13
7.14572e-13
2.0289e-12
5.70009e-12
1.5814e-11
4.32063e-11
1.1587e-10
3.03767e-10
7.762e-10
1.92694e-09
4.63346e-09
1.07749e-08
2.41925e-08
5.23946e-08
1.0936e-07
2.1988e-07
4.25631e-07
7.93033e-07
1.42153e-06
2.45117e-06
4.06371e-06
6.47761e-06
9.92318e-06
1.46101e-05
2.06796e-05
2.80982e-05
3.69299e-05
4.57164e-05
6.07879e-05
2.22425e-18
5.08559e-18
1.47166e-17
4.37812e-17
1.30565e-16
3.89139e-16
1.15773e-15
3.43408e-15
1.01437e-14
2.97985e-14
8.6953e-14
2.51748e-13
7.22519e-13
2.05344e-12
5.77144e-12
1.60065e-11
4.36824e-11
1.16885e-10
3.05655e-10
7.77838e-10
1.92304e-09
4.60586e-09
1.06639e-08
2.3847e-08
5.14599e-08
1.07078e-07
2.14766e-07
4.14982e-07
7.72305e-07
1.38366e-06
2.38597e-06
3.95798e-06
6.31544e-06
9.68855e-06
1.42896e-05
2.02663e-05
2.75962e-05
3.63558e-05
4.51015e-05
6.01925e-05
2.22129e-18
5.07928e-18
1.47014e-17
4.37605e-17
1.30627e-16
3.89836e-16
1.16172e-15
3.45269e-15
1.02212e-14
3.00992e-14
8.805e-14
2.55559e-13
7.35102e-13
2.09297e-12
5.88886e-12
1.63332e-11
4.45221e-11
1.18837e-10
3.09517e-10
7.84323e-10
1.92698e-09
4.58742e-09
1.05627e-08
2.34806e-08
5.04018e-08
1.04397e-07
2.08598e-07
4.01904e-07
7.46492e-07
1.33596e-06
2.30312e-06
3.82241e-06
6.10619e-06
9.38356e-06
1.38701e-05
1.97215e-05
2.69299e-05
3.55871e-05
4.42723e-05
5.93806e-05
2.22913e-18
5.0976e-18
1.47586e-17
4.39549e-17
1.31321e-16
3.92384e-16
1.17122e-15
3.48832e-15
1.03533e-14
3.05819e-14
8.9768e-14
2.61496e-13
7.5483e-13
2.15586e-12
6.07954e-12
1.68782e-11
4.59732e-11
1.22389e-10
3.17372e-10
7.99177e-10
1.95076e-09
4.6038e-09
1.05119e-08
2.31943e-08
4.94145e-08
1.01674e-07
2.02017e-07
3.87454e-07
7.17194e-07
1.28059e-06
2.20511e-06
3.65931e-06
5.85061e-06
9.00592e-06
1.33442e-05
1.90307e-05
2.60766e-05
3.45931e-05
4.31917e-05
5.83128e-05
2.23839e-18
5.11917e-18
1.48262e-17
4.41875e-17
1.32169e-16
3.95611e-16
1.1838e-15
3.5372e-15
1.05406e-14
3.12818e-14
9.23124e-14
2.70448e-13
7.85164e-13
2.25462e-12
6.38572e-12
1.77755e-11
4.84513e-11
1.28758e-10
3.32413e-10
8.31214e-10
2.00991e-09
4.69631e-09
1.05988e-08
2.31154e-08
4.87243e-08
9.92671e-08
1.955e-07
3.7219e-07
6.84948e-07
1.21793e-06
2.09189e-06
3.46794e-06
5.54701e-06
8.55273e-06
1.27075e-05
1.81879e-05
2.50281e-05
3.33625e-05
4.18472e-05
5.69649e-05
2.25033e-18
5.14162e-18
1.48784e-17
4.43581e-17
1.32866e-16
3.98735e-16
1.19748e-15
3.59526e-15
1.07767e-14
3.22039e-14
9.57892e-14
2.83066e-13
8.29421e-13
2.40335e-12
6.86146e-12
1.92327e-11
5.26725e-11
1.3989e-10
3.58907e-10
8.87808e-10
2.1177e-09
4.87471e-09
1.08295e-08
2.32739e-08
4.83565e-08
9.70615e-08
1.88514e-07
3.54513e-07
6.45897e-07
1.14009e-06
1.94947e-06
3.2262e-06
5.16393e-06
7.98379e-06
1.1914e-05
1.71472e-05
2.37463e-05
3.18752e-05
4.025e-05
5.54087e-05
2.24252e-18
5.12871e-18
1.48573e-17
4.4375e-17
1.3318e-16
4.0111e-16
1.20969e-15
3.65487e-15
1.10365e-14
3.33043e-14
1.0017e-13
2.99958e-13
8.91932e-13
2.62279e-12
7.61296e-12
2.16638e-11
5.96309e-11
1.56913e-10
3.97139e-10
9.67457e-10
2.2705e-09
5.1373e-09
1.11982e-08
2.35065e-08
4.77142e-08
9.40266e-08
1.80145e-07
3.35679e-07
6.08339e-07
1.07109e-06
1.83031e-06
3.0315e-06
4.86257e-06
7.54268e-06
1.13067e-05
1.63627e-05
2.28065e-05
3.08258e-05
3.91828e-05
5.44831e-05
2.22721e-18
5.10071e-18
1.47984e-17
4.42953e-17
1.33276e-16
4.03123e-16
1.22203e-15
3.72317e-15
1.13501e-14
3.4732e-14
1.06061e-13
3.24148e-13
9.84624e-13
2.96779e-12
8.91831e-12
2.55144e-11
6.9886e-11
1.8437e-10
4.73963e-10
1.20392e-09
2.9491e-09
6.77938e-09
1.45228e-08
2.93204e-08
5.66551e-08
1.06186e-07
1.94839e-07
3.51309e-07
6.22465e-07
1.08148e-06
1.83725e-06
3.04156e-06
4.8936e-06
7.63048e-06
1.15075e-05
1.67454e-05
2.34445e-05
3.17752e-05
4.04566e-05
5.61331e-05
2.21522e-18
5.07747e-18
1.47641e-17
4.42858e-17
1.3372e-16
4.06302e-16
1.24059e-15
3.81689e-15
1.17899e-14
3.67291e-14
1.14563e-13
3.60571e-13
1.12749e-12
3.57535e-12
1.09567e-11
3.14669e-11
1.02449e-10
6.81161e-10
4.13381e-09
1.56094e-08
4.09358e-08
8.35761e-08
1.44847e-07
2.25828e-07
3.30353e-07
4.68556e-07
6.61248e-07
9.45132e-07
1.37987e-06
2.05675e-06
3.10839e-06
4.71655e-06
7.11324e-06
1.05506e-05
1.52744e-05
2.14646e-05
2.91382e-05
3.83526e-05
4.7655e-05
6.34253e-05
2.2188e-18
5.07962e-18
1.47779e-17
4.43542e-17
1.34466e-16
4.10337e-16
1.26528e-15
3.93479e-15
1.23821e-14
3.93921e-14
1.2679e-13
4.14103e-13
1.35865e-12
4.6439e-12
1.35078e-11
1.03229e-10
4.57683e-09
4.25052e-08
1.60549e-07
3.71877e-07
6.57537e-07
9.96416e-07
1.37873e-06
1.80409e-06
2.28351e-06
2.84883e-06
3.55069e-06
4.4573e-06
5.65943e-06
7.28205e-06
9.51217e-06
1.25592e-05
1.66352e-05
2.19203e-05
2.852e-05
3.63901e-05
4.53015e-05
5.50183e-05
6.40564e-05
7.73905e-05
2.22035e-18
5.07951e-18
1.47748e-17
4.44011e-17
1.35179e-16
4.15029e-16
1.29421e-15
4.0789e-15
1.31312e-14
4.28754e-14
1.43945e-13
4.92616e-13
1.76121e-12
6.34282e-12
2.06191e-11
9.81499e-09
1.81946e-07
7.3585e-07
1.52561e-06
2.35356e-06
3.21062e-06
4.13729e-06
5.18331e-06
6.38459e-06
7.82096e-06
9.61318e-06
1.18734e-05
1.46682e-05
1.80543e-05
2.21221e-05
2.69113e-05
3.24659e-05
3.88182e-05
4.59309e-05
5.36348e-05
6.16157e-05
6.93783e-05
7.66809e-05
8.23975e-05
8.93693e-05
2.21075e-18
5.0628e-18
1.47375e-17
4.44435e-17
1.35827e-16
4.20487e-16
1.32551e-15
4.2501e-15
1.40283e-14
4.73344e-14
1.67468e-13
6.11305e-13
2.46079e-12
9.416e-12
7.43375e-11
3.09674e-07
1.75038e-06
3.43941e-06
4.76084e-06
6.00715e-06
7.48209e-06
9.32428e-06
1.16305e-05
1.44929e-05
1.82664e-05
2.30615e-05
2.86912e-05
3.48903e-05
4.14357e-05
4.80579e-05
5.43916e-05
6.01252e-05
6.51697e-05
6.9676e-05
7.37759e-05
7.75809e-05
8.0924e-05
8.40942e-05
8.6231e-05
8.95909e-05
2.212e-18
5.06133e-18
1.47262e-17
4.44896e-17
1.36454e-16
4.26159e-16
1.35796e-15
4.44338e-15
1.50574e-14
5.28555e-14
1.99418e-13
7.88764e-13
3.70283e-12
1.74068e-11
4.74414e-10
2.91087e-06
5.22296e-06
6.28395e-06
7.89434e-06
1.03361e-05
1.30512e-05
1.62441e-05
2.07833e-05
2.76592e-05
3.74374e-05
4.72911e-05
5.34833e-05
5.55969e-05
5.66369e-05
5.80767e-05
6.04607e-05
6.36091e-05
6.70271e-05
7.04047e-05
7.35873e-05
7.66278e-05
7.92238e-05
8.1989e-05
8.36055e-05
8.69685e-05
2.04764e-18
4.97695e-18
1.46843e-17
4.45254e-17
1.37086e-16
4.31922e-16
1.39107e-15
4.65471e-15
1.61468e-14
5.97747e-14
2.37824e-13
1.06391e-12
5.73614e-12
3.66343e-11
2.0676e-09
1.0245e-05
6.45628e-06
7.05754e-06
1.11717e-05
1.7114e-05
1.81095e-05
1.91463e-05
2.52738e-05
4.08774e-05
5.4904e-05
7.06432e-05
7.0607e-05
6.79801e-05
6.55616e-05
6.50085e-05
6.55764e-05
6.7201e-05
6.96166e-05
7.23726e-05
7.51266e-05
7.79109e-05
8.02581e-05
8.31962e-05
8.4582e-05
8.83374e-05
2.05259e-18
4.94848e-18
1.46274e-17
4.45284e-17
1.37828e-16
4.37208e-16
1.42591e-15
4.85334e-15
1.73242e-14
6.6925e-14
2.82682e-13
1.42075e-12
8.50324e-12
6.99899e-11
5.04469e-09
1.83239e-05
4.66511e-05
9.8765e-05
8.97152e-05
8.4733e-05
8.04317e-05
7.8044e-05
7.70156e-05
7.72759e-05
7.81214e-05
7.95584e-05
8.13352e-05
8.34446e-05
8.52146e-05
8.80331e-05
8.87398e-05
9.22132e-05
2.18479e-18
5.00867e-18
1.46346e-17
4.45358e-17
1.38402e-16
4.41366e-16
1.45536e-15
5.02235e-15
1.84052e-14
7.335e-14
3.29645e-13
1.76328e-12
1.1649e-11
1.02673e-10
7.44107e-09
2.17061e-05
0.000101586
0.000106924
9.41925e-05
9.2702e-05
9.07991e-05
8.88434e-05
8.74819e-05
8.69829e-05
8.7278e-05
8.78003e-05
8.85072e-05
8.95518e-05
9.0353e-05
9.25963e-05
9.23744e-05
9.52413e-05
2.18404e-18
5.00992e-18
1.46423e-17
4.46107e-17
1.38894e-16
4.45034e-16
1.47648e-15
5.15847e-15
1.91857e-14
7.87109e-14
3.65293e-13
2.07201e-12
1.43501e-11
1.3437e-10
9.93458e-09
2.51449e-05
9.70539e-05
9.93948e-05
8.98745e-05
8.91408e-05
8.85476e-05
8.80392e-05
8.77489e-05
8.8339e-05
8.91314e-05
9.00477e-05
9.09727e-05
9.21313e-05
9.27501e-05
9.49021e-05
9.4096e-05
9.70941e-05
2.18677e-18
5.01637e-18
1.46661e-17
4.46791e-17
1.39286e-16
4.46944e-16
1.48876e-15
5.22485e-15
1.96199e-14
8.13283e-14
3.8479e-13
2.21716e-12
1.55763e-11
1.48642e-10
1.09091e-08
2.57758e-05
9.86191e-05
9.89191e-05
8.90727e-05
8.75358e-05
8.64881e-05
8.62881e-05
8.74173e-05
8.84373e-05
8.95578e-05
9.074e-05
9.18321e-05
9.31043e-05
9.36772e-05
9.57748e-05
9.46256e-05
9.78374e-05
2.18677e-18
5.01637e-18
1.4666e-17
4.46788e-17
1.39284e-16
4.46936e-16
1.48873e-15
5.22474e-15
1.96194e-14
8.13264e-14
3.84782e-13
2.21708e-12
1.55764e-11
1.48639e-10
1.09089e-08
2.57756e-05
9.86191e-05
9.89188e-05
8.90726e-05
8.75358e-05
8.64878e-05
8.62875e-05
8.74164e-05
8.84363e-05
8.95567e-05
9.07388e-05
9.18308e-05
9.3103e-05
9.36758e-05
9.57733e-05
9.4624e-05
9.78359e-05
2.184e-18
5.00983e-18
1.46421e-17
4.46108e-17
1.38898e-16
4.45054e-16
1.47657e-15
5.15873e-15
1.91866e-14
7.87117e-14
3.65257e-13
2.07142e-12
1.43364e-11
1.34243e-10
9.93588e-09
2.5145e-05
9.7054e-05
9.93942e-05
8.98741e-05
8.91404e-05
8.85468e-05
8.80376e-05
8.77466e-05
8.83363e-05
8.91282e-05
9.00445e-05
9.09693e-05
9.21273e-05
9.27458e-05
9.48978e-05
9.40918e-05
9.70901e-05
2.18453e-18
5.00883e-18
1.46356e-17
4.45374e-17
1.3841e-16
4.41402e-16
1.45551e-15
5.02304e-15
1.84079e-14
7.33628e-14
3.29666e-13
1.76304e-12
1.16311e-11
1.02457e-10
7.44364e-09
2.17064e-05
0.000101586
0.000106922
9.41904e-05
9.27001e-05
9.07973e-05
8.88421e-05
8.74804e-05
8.69802e-05
8.72748e-05
8.77966e-05
8.85029e-05
8.95466e-05
9.03473e-05
9.25901e-05
9.23679e-05
9.52346e-05
2.18836e-18
5.01829e-18
1.46498e-17
4.45324e-17
1.37834e-16
4.37258e-16
1.42615e-15
4.85421e-15
1.73283e-14
6.69402e-14
2.82729e-13
1.42074e-12
8.48797e-12
6.97822e-11
5.04738e-09
1.83234e-05
4.6657e-05
9.87697e-05
8.97152e-05
8.47331e-05
8.04325e-05
7.80449e-05
7.70148e-05
7.72745e-05
7.81193e-05
7.95557e-05
8.13318e-05
8.34404e-05
8.52094e-05
8.80268e-05
8.87324e-05
9.22046e-05
2.19943e-18
5.0388e-18
1.46776e-17
4.44958e-17
1.37066e-16
4.31928e-16
1.39122e-15
4.65553e-15
1.61499e-14
5.97962e-14
2.37871e-13
1.06432e-12
5.72834e-12
3.64144e-11
2.07018e-09
1.02448e-05
6.4562e-06
7.0575e-06
1.11737e-05
1.71192e-05
1.81153e-05
1.91533e-05
2.5286e-05
4.08938e-05
5.49152e-05
7.06501e-05