/*--------------------------------*- C++ -*----------------------------------*\
| =========                 |                                                 |
| \\      /  F ield         | OpenFOAM: The Open Source CFD Toolbox           |
|  \\    /   O peration     | Version:  2412                                  |
|   \\  /    A nd           | Website:  www.openfoam.com                      |
|    \\/     M anipulation  |                                                 |
\*---------------------------------------------------------------------------*/
FoamFile
{
    version     2.0;
    format      ascii;
    arch        "LSB;label=32;scalar=64";
    class       volScalarField;
    location    "5";
    object      gcr;
}
// * * * * * * * * * * * * * * * * * * * * * * * * * * * * * * * * * * * * * //

dimensions      [0 1 -1 0 0 0 0];

internalField   nonuniform List<scalar> 
47360
(
7.81567e-08
2.90877e-07
8.37734e-07
2.45701e-06
7.14893e-06
2.05628e-05
5.84091e-05
0.000163768
0.000453259
0.00123843
0.00333948
0.00887447
0.0231784
0.0592637
0.147668
0.356913
0.833249
1.8722
4.03668
8.33329
16.443
30.9752
55.6649
95.402
155.934
243.21
362.262
516.115
704.533
923.985
1167.42
1426.24
1690.7
1952.64
2204.5
2441.35
2658.34
2855.63
3014.22
3219.58
7.81336e-08
2.90986e-07
8.39193e-07
2.46483e-06
7.18288e-06
2.06939e-05
5.88813e-05
0.000165373
0.000458497
0.00125485
0.00338921
0.00901944
0.0235854
0.0603546
0.150459
0.363668
0.848733
1.90562
4.10469
8.4632
16.678
31.3749
56.3091
96.3815
157.361
245.178
364.901
519.472
708.757
929.039
1173.44
1433.08
1698.48
1961.03
2213.51
2450.81
2667.96
2865.43
3023.83
3229.07
7.81924e-08
2.91413e-07
8.415e-07
2.47528e-06
7.22514e-06
2.08525e-05
5.94456e-05
0.000167295
0.000464805
0.00127483
0.00345038
0.00919971
0.0240955
0.0617303
0.153984
0.372191
0.868146
1.94707
4.18782
8.61924
16.9524
31.8291
57.02
97.4331
158.845
247.189
367.558
522.901
713.163
934.578
1180.43
1441.6
1708.8
1972.99
2227.26
2465.92
2684.44
2882.96
3042.12
3248.33
7.82372e-08
2.91782e-07
8.43662e-07
2.48546e-06
7.26757e-06
2.10172e-05
6.00494e-05
0.00016942
0.000471989
0.0012983
0.00352426
0.00942333
0.024743
0.0635118
0.158623
0.383542
0.894221
2.003
4.30002
8.82933
17.321
32.4333
57.9548
98.8007
160.759
249.758
370.939
527.274
718.832
941.858
1189.77
1453.29
1723.22
1990.13
2247.23
2488.31
2709.19
2909.51
3070.17
3278.28
7.82649e-08
2.92081e-07
8.45599e-07
2.49526e-06
7.31014e-06
2.119e-05
6.07063e-05
0.000171822
0.000480383
0.00132668
0.00361623
0.00971001
0.0255935
0.0659083
0.164988
0.399407
0.931248
2.08364
4.46401
9.14019
17.872
33.3473
59.3796
100.901
163.719
253.769
376.246
534.165
727.725
953.236
1204.23
1471.32
1745.26
2016.27
2277.52
2522.27
2746.61
2949.54
3112.48
3323.32
7.8337e-08
2.92536e-07
8.47959e-07
2.50631e-06
7.35764e-06
2.13843e-05
6.14614e-05
0.000174656
0.000490553
0.00136206
0.00373395
0.010088
0.0267449
0.0692475
0.174086
0.422708
0.987038
2.20811
4.72198
9.63671
18.7646
34.8525
61.7821
104.546
169.029
261.231
386.436
547.692
745.248
975.252
1231.2
1503.48
1782.83
2059
2325.22
2574.35
2802.79
3008.79
3174.51
3388.53
7.84403e-08
2.93081e-07
8.50616e-07
2.51848e-06
7.41125e-06
2.16068e-05
6.23423e-05
0.000177997
0.000502875
0.00140605
0.0038857
0.0105932
0.0283434
0.0740684
0.187718
0.458978
1.07646
2.41145
5.14862
10.4733
20.3194
37.6139
66.5071
112.297
181.109
278.964
410.797
578.965
783.135
1018.8
1279.4
1555.28
1837.56
2116.09
2384.29
2634.88
2865.08
3072.3
3239.84
3456.47
7.88408e-08
2.94588e-07
8.55449e-07
2.53514e-06
7.47222e-06
2.18363e-05
6.32602e-05
0.000181616
0.000517084
0.00145959
0.00408285
0.0112839
0.0306557
0.0814008
0.209468
0.518803
1.22623
2.75915
5.91232
12.1153
23.7697
44.5248
79.1806
133.095
211.447
318.765
458.55
632.015
838.613
1074.81
1334.13
1606.68
1883.48
2155.06
2416.74
2661.64
2887.86
3091.66
3259.33
3477.65
7.82839e-08
2.92472e-07
8.501e-07
2.52469e-06
7.46365e-06
2.19188e-05
6.38957e-05
0.000185075
0.000532909
0.00152666
0.0043496
0.0122805
0.0342184
0.0932926
0.246067
0.621723
1.49716
3.47615
7.85452
17.1696
35.0218
65.2918
111.378
176.68
265.035
380.114
525.92
703.662
910.906
1141.53
1388.52
1643.76
1901.48
2153.76
2396.27
2623.28
2834.2
3026.64
3188.96
3402.36
7.71796e-08
2.88697e-07
8.40725e-07
2.50675e-06
7.44082e-06
2.20005e-05
6.46495e-05
0.000189638
0.000554166
0.00162242
0.00473786
0.0138296
0.0400383
0.113396
0.311187
0.826486
2.2037
6.06966
15.7122
34.9292
66.1898
111.25
172.472
253.587
359.57
492.73
652.432
836.109
1040.26
1259.91
1489.55
1720.56
1945.97
2160.55
2363.6
2552.17
2731.74
2900.31
3044.08
3230.71
7.68324e-08
2.87702e-07
8.39027e-07
2.50747e-06
7.47493e-06
2.22492e-05
6.60417e-05
0.000196428
0.00058517
0.00176047
0.00531456
0.0163143
0.0496369
0.149542
0.457561
1.4867
5.46163
17.3141
42.0077
80.9673
137.066
211.795
308.178
428.706
569.691
728.626
904.698
1094.5
1290.08
1482.98
1665.41
1834.9
1991.4
2135.59
2273.42
2410.41
2541.9
2663.82
2767
2892.69
7.74012e-08
2.90032e-07
8.46639e-07
2.53377e-06
7.58728e-06
2.27052e-05
6.821e-05
0.000205587
0.000628729
0.00194757
0.00618178
0.0202504
0.0660131
0.236161
0.980541
4.52418
19.4374
53.9476
116.511
205.805
324.323
464.116
615.664
776.934
942.47
1108.54
1266.01
1407.86
1531.08
1635
1723.66
1800.06
1873.73
1948.43
2021.19
2097.25
2169.66
2235.71
2288.24
2359.98
7.8592e-08
2.94566e-07
8.59374e-07
2.57495e-06
7.72806e-06
2.32849e-05
7.07039e-05
0.000216667
0.000682081
0.00218716
0.00745645
0.0263791
0.100529
0.547785
2.95587
16.5833
69.445
178.226
349.093
538.778
718.315
883.487
1030.88
1154.43
1254.25
1332.56
1392.06
1432.29
1457.68
1475.42
1492.5
1509.65
1528.12
1553.06
1581.73
1613.59
1652.41
1701.63
1752.92
1860.34
7.97993e-08
2.99075e-07
8.70854e-07
2.61499e-06
7.84595e-06
2.38701e-05
7.28948e-05
0.000228528
0.000736517
0.00248668
0.00923695
0.0367303
0.196384
1.60793
8.20759
66.9357
271.113
566.96
811.729
958.528
1041.57
1092.81
1119.08
1128.11
1135.22
1141.97
1136.99
1118.31
1100.66
1085.83
1075.25
1079.04
1100.7
1140.06
1195.98
1268.99
1354.76
1452.7
1541.99
1694.28
8.09296e-08
3.02123e-07
8.78789e-07
2.62658e-06
7.89854e-06
2.40266e-05
7.40486e-05
0.000236682
0.000786021
0.00284797
0.0116853
0.0561407
0.449743
3.99547
17.2186
373.307
839.895
1004.13
957.857
901.806
852.416
826.453
780.535
746.6
754.232
789.178
790.419
801.087
835.141
885.517
938.931
990.137
1041.88
1101.82
1165.92
1239.46
1321.05
1415.21
1498.22
1640.86
7.76667e-08
2.89541e-07
8.43565e-07
2.52586e-06
7.65356e-06
2.34444e-05
7.36929e-05
0.000240668
0.000837044
0.00327036
0.0149024
0.0901964
0.904512
7.27688
25.7254
1615.77
1023.78
639.268
452.736
334.269
258.398
220.464
230.93
311.245
536.141
743.026
794.134
820.108
875.207
911.294
942.467
989.432
1041.44
1102.27
1170.1
1246.29
1323.67
1413.94
1485.53
1609.46
7.54995e-08
2.81822e-07
8.21461e-07
2.46991e-06
7.50791e-06
2.32373e-05
7.39594e-05
0.00024726
0.00089237
0.0037028
0.0186773
0.133435
1.40702
9.71898
25.6195
2434.04
358.631
723.752
749.96
868.037
1033.84
1165.73
1210.58
1239.11
1250.63
1255.06
1264.42
1290.73
1328.53
1397.36
1448.08
1547.1
7.57561e-08
2.82664e-07
8.2253e-07
2.46687e-06
7.50075e-06
2.32573e-05
7.45196e-05
0.000252307
0.00093477
0.00405547
0.0220568
0.169213
1.77237
10.0417
22.172
2271.36
475.127
901.5
1031.33
1201.8
1260.06
1270.94
1257.78
1227.17
1188.99
1161.2
1156.34
1186.05
1236.18
1311.61
1356.11
1454.62
7.52017e-08
2.80697e-07
8.15288e-07
2.44275e-06
7.42477e-06
2.30665e-05
7.41891e-05
0.00025342
0.00095217
0.00424331
0.0237253
0.18732
1.80193
8.97724
19.2816
2163.21
476.592
915.538
1093.23
1261.23
1232.91
1195.36
1148.61
1098.52
1051.84
1035.45
1048.88
1095.97
1147.13
1228.28
1269.4
1373.15
7.6901e-08
2.86186e-07
8.27839e-07
2.47057e-06
7.48009e-06
2.31321e-05
7.40986e-05
0.000251974
0.000944877
0.00418975
0.0233052
0.176128
1.54557
7.25986
14.688
1917.08
458.083
889.988
1103.63
1269.6
1222.71
1161.99
1086.1
1022.22
978.435
971.47
999.327
1045.55
1093.59
1176.02
1213.07
1320.59
7.69044e-08
2.86198e-07
8.27871e-07
2.47065e-06
7.48033e-06
2.31327e-05
7.41004e-05
0.000251977
0.000944891
0.00418974
0.023305
0.176126
1.54547
7.25977
14.6879
1917.06
458.082
890
1103.65
1269.62
1222.73
1162.01
1086.11
1022.23
978.442
971.47
999.323
1045.54
1093.58
1176
1213.05
1320.57
7.52034e-08
2.80706e-07
8.15347e-07
2.44299e-06
7.42538e-06
2.30683e-05
7.41942e-05
0.000253436
0.000952206
0.00424319
0.0237222
0.187293
1.80169
8.97644
19.2811
2163.16
476.595
915.588
1093.3
1261.32
1232.99
1195.43
1148.66
1098.55
1051.86
1035.45
1048.88
1095.96
1147.1
1228.23
1269.34
1373.08
7.57502e-08
2.82648e-07
8.22472e-07
2.46675e-06
7.5008e-06
2.32584e-05
7.45257e-05
0.000252334
0.000934863
0.00405565
0.0220547
0.169172
1.77211
10.04
22.1707
2271.3
475.15
901.603
1031.45
1201.94
1260.18
1271.05
1257.86
1227.23
1189.04
1161.24
1156.37
1186.07
1236.19
1311.62
1356.11
1454.6
7.54972e-08
2.81819e-07
8.21453e-07
2.46996e-06
7.50858e-06
2.32392e-05
7.3966e-05
0.000247286
0.000892496
0.003703
0.018676
0.133397
1.40672
9.71808
25.6188
2433.97
358.691
723.902
750.129
868.215
1034.03
1165.91
1210.73
1239.25
1250.76
1255.18
1264.53
1290.83
1328.64
1397.45
1448.16
1547.15
7.76717e-08
2.89564e-07
8.43671e-07
2.526e-06
7.65438e-06
2.34501e-05
7.37084e-05
0.000240723
0.000837241
0.00327106
0.0149023
0.0901711
0.904318
7.27415
25.7219
1615.7
1023.74
639.229
452.719
334.287
258.468
220.56
230.988
311.223
536.143
743.012
794.113
820.117
875.284
911.427
942.624
989.604
1041.63
1102.48
1170.32
1246.52
1323.89
1414.16
1485.73
1609.62
8.09038e-08
3.02039e-07
8.78566e-07
2.62608e-06
7.89691e-06
2.40227e-05
7.40479e-05
0.000236696
0.000786107
0.0028484
0.0116862
0.056123
0.449664
3.99281
17.2184
373.306
839.796
1004.04
957.818
901.751
852.386
826.471
780.589
746.725
754.477
789.546
790.815
801.467
835.495
885.825
939.209
990.408
1042.17
1102.14
1166.26
1239.81
1321.39
1415.52
1498.51
1641.11
7.98146e-08
2.99139e-07
8.71061e-07
2.6157e-06
7.84784e-06
2.38752e-05
7.29088e-05
0.000228578
0.000736712
0.0024873
0.00923943
0.0367259
0.196359
1.60646
8.20563
66.9155
271.071
566.833
811.623
958.427
1041.49
1092.75
1119.04
1128.06
1135.18
1141.94
1137.01
1118.39
1100.82
1086.08
1075.6
1079.49
1101.22
1140.6
1196.53
1269.54
1355.3
1453.22
1542.49
1694.75
7.86285e-08
2.94708e-07
8.59812e-07
2.57639e-06
7.73262e-06
2.32993e-05
7.07486e-05
0.000216803
0.000682514
0.0021885
0.00746073
0.02639
0.100552
0.547321
2.95541
16.5757
69.4158
178.18
349.006
538.689
718.215
883.392
1030.82
1154.38
1254.22
1332.53
1392.01
1432.22
1457.59
1475.31
1492.4
1509.62
1528.19
1553.29
1582.08
1614.12
1653.11
1702.48
1753.86
1861.32
7.73766e-08
2.89957e-07
8.46458e-07
2.53336e-06
7.58649e-06
2.27044e-05
6.82133e-05
0.000205616
0.000628878
0.00194827
0.00618432
0.02026
0.0660515
0.236122
0.980507
4.5227
19.4325
53.9243
116.451
205.739
324.201
463.956
615.496
776.782
942.341
1108.43
1265.9
1407.75
1530.96
1634.85
1723.44
1799.77
1873.4
1948.08
2020.89
2097.05
2169.64
2235.98
2288.8
2361.09
7.68172e-08
2.87652e-07
8.38946e-07
2.50735e-06
7.47441e-06
2.22477e-05
6.6038e-05
0.000196427
0.000585192
0.00176068
0.00531554
0.0163178
0.0496567
0.149591
0.457623
1.48679
5.46043
17.3084
41.9979
80.927
136.991
211.689
308.015
428.463
569.376
728.294
904.339
1094.11
1289.65
1482.51
1664.9
1834.31
1990.71
2134.77
2272.48
2409.39
2540.88
2662.94
2766.25
2892.57
7.71924e-08
2.88749e-07
8.40825e-07
2.50718e-06
7.44314e-06
2.20073e-05
6.46684e-05
0.000189694
0.000554329
0.00162292
0.00473941
0.0138337
0.0400496
0.113432
0.311274
0.826683
2.20378
6.06933
15.7088
34.9171
66.1634
111.188
172.361
253.422
359.326
492.381
651.965
835.54
1039.6
1259.17
1488.7
1719.59
1944.88
2159.33
2362.23
2550.67
2730.12
2898.66
3042.43
3229.37
7.82901e-08
2.92507e-07
8.5025e-07
2.52509e-06
7.46472e-06
2.19235e-05
6.39127e-05
0.000185132
0.000533096
0.00152726
0.00435142
0.0122857
0.0342316
0.0933231
0.246136
0.621881
1.4974
3.47638
7.85397
17.1662
35.0124
65.2695
111.329
176.584
264.875
379.88
525.599
703.236
910.351
1140.86
1387.74
1642.86
1900.46
2152.59
2394.97
2621.84
2832.63
3025
3187.27
3400.78
7.88143e-08
2.94499e-07
8.55214e-07
2.53452e-06
7.47073e-06
2.18337e-05
6.32557e-05
0.000181612
0.000517093
0.00145967
0.00408327
0.0112856
0.030661
0.0814147
0.209496
0.518847
1.22628
2.75912
5.9118
12.1132
23.764
44.5116
79.153
133.044
211.361
318.629
458.348
631.743
838.275
1074.4
1333.66
1606.14
1882.87
2154.38
2415.97
2660.79
2886.91
3090.64
3258.24
3476.57
7.84467e-08
2.93111e-07
8.50728e-07
2.51886e-06
7.41226e-06
2.16093e-05
6.23506e-05
0.000178023
0.000502955
0.00140628
0.00388631
0.0105948
0.0283469
0.0740758
0.18773
0.458979
1.07639
2.41117
5.14775
10.471
20.314
37.6025
66.4856
112.259
181.048
278.871
410.669
578.8
782.93
1018.56
1279.13
1554.99
1837.27
2115.78
2383.97
2634.53
2864.72
3071.92
3239.44
3456.07
7.83397e-08
2.9255e-07
8.4802e-07
2.50656e-06
7.35847e-06
2.13871e-05
6.14711e-05
0.000174687
0.000490648
0.00136234
0.00373474
0.01009
0.0267496
0.0692573
0.174102
0.422723
0.987008
2.20789
4.7212
9.6346
18.7597
34.8425
61.7625
104.513
168.977
261.155
386.337
547.565
745.097
975.085
1231.03
1503.32
1782.69
2058.87
2325.12
2574.27
2802.74
3008.76
3174.5
3388.53
7.82532e-08
2.92047e-07
8.45525e-07
2.49506e-06
7.30968e-06
2.11888e-05
6.07035e-05
0.000171817
0.000480375
0.00132668
0.00361626
0.00971017
0.0255939
0.0659084
0.164985
0.399386
0.931162
2.08336
4.46321
9.13824
17.8676
33.3377
59.3628
100.873
163.675
253.706
376.158
534.055
727.598
953.095
1204.09
1471.18
1745.14
2016.18
2277.44
2522.22
2746.58
2949.53
3112.49
3323.37
7.82356e-08
2.91777e-07
8.43651e-07
2.48549e-06
7.26772e-06
2.10177e-05
6.00506e-05
0.000169423
0.000471998
0.00129832
0.00352431
0.00942341
0.0247429
0.0635104
0.158616
0.383512
0.894123
2.00272
4.29931
8.82751
17.3169
32.4259
57.9419
98.7781
160.723
249.705
370.868
527.184
718.725
941.745
1189.65
1453.17
1723.12
1990.04
2247.16
2488.26
2709.15
2909.48
3070.16
3278.31
7.81912e-08
2.91411e-07
8.41507e-07
2.47532e-06
7.22531e-06
2.08531e-05
5.94473e-05
0.000167301
0.000464821
0.00127487
0.00345051
0.00919999
0.024096
0.0617306
0.153982
0.372175
0.868086
1.9469
4.18726
8.61782
16.95
31.8242
57.0101
97.4157
158.818
247.149
367.504
522.835
713.084
934.489
1180.34
1441.51
1708.72
1972.92
2227.2
2465.87
2684.4
2882.93
3042.09
3248.32
7.81335e-08
2.90987e-07
8.39195e-07
2.46483e-06
7.18298e-06
2.06945e-05
5.88829e-05
0.000165378
0.00045851
0.00125488
0.0033893
0.00901964
0.0235858
0.0603552
0.150459
0.363663
0.848709
1.90552
4.10442
8.46271
16.6767
31.3717
56.3032
96.3712
157.345
245.154
364.867
519.429
708.707
928.984
1173.38
1433.02
1698.43
1960.99
2213.47
2450.78
2667.93
2865.41
3023.82
3229.06
7.8156e-08
2.90875e-07
8.37733e-07
2.45702e-06
7.14889e-06
2.05625e-05
5.84085e-05
0.000163767
0.000453257
0.00123843
0.00333946
0.0088744
0.0231781
0.0592627
0.147665
0.356904
0.833226
1.87215
4.03659
8.33303
16.4424
30.9742
55.663
95.3986
155.929
243.202
362.251
516.1
704.516
923.967
1167.41
1426.22
1690.69
1952.62
2204.49
2441.34
2658.32
2855.61
3014.21
3219.57
6.09617e-13
2.05874e-12
5.97607e-12
1.78318e-11
5.33499e-11
1.59573e-10
4.76736e-10
1.42146e-09
4.22631e-09
1.25188e-08
3.6913e-08
1.08264e-07
3.15658e-07
9.14401e-07
2.62967e-06
7.49747e-06
2.11468e-05
5.88244e-05
0.00016081
0.000430336
0.00112305
0.00284831
0.00700023
0.0166312
0.0381257
0.0842071
0.179
0.365889
0.718738
1.35614
2.45685
4.27256
7.13053
11.4198
17.5483
25.8888
36.601
50.0418
64.0307
90.2477
6.09883e-13
2.06031e-12
5.98421e-12
1.78677e-11
5.34988e-11
1.60159e-10
4.78941e-10
1.42945e-09
4.25449e-09
1.26157e-08
3.72384e-08
1.09329e-07
3.19055e-07
9.24919e-07
2.66132e-06
7.58931e-06
2.14041e-05
5.95082e-05
0.000162558
0.000434553
0.00113246
0.0028678
0.00703697
0.0166918
0.0382064
0.0842644
0.178894
0.365255
0.716831
1.35146
2.447
4.25346
7.09703
11.3643
17.4632
25.7665
36.4345
49.8325
63.7966
90.024
6.10736e-13
2.06395e-12
5.99738e-12
1.79171e-11
5.36812e-11
1.60827e-10
4.81382e-10
1.4383e-09
4.28606e-09
1.27264e-08
3.76175e-08
1.10593e-07
3.2315e-07
9.37767e-07
2.70013e-06
7.70203e-06
2.17129e-05
6.03245e-05
0.000164516
0.000438924
0.00114139
0.00288314
0.00705655
0.0166966
0.0381283
0.083916
0.177831
0.362541
0.710677
1.33872
2.42276
4.2103
7.02577
11.2533
17.302
25.5454
36.1503
49.4932
63.4307
89.6722
6.10864e-13
2.06489e-12
6.00318e-12
1.79466e-11
5.3814e-11
1.61397e-10
4.8372e-10
1.44753e-09
4.32122e-09
1.28557e-08
3.80764e-08
1.12166e-07
3.28349e-07
9.54314e-07
2.75065e-06
7.84903e-06
2.21199e-05
6.13698e-05
0.00016703
0.000444325
0.00115155
0.00289858
0.00706746
0.0166616
0.03792
0.0832076
0.175882
0.357828
0.70035
1.31784
2.38353
4.14126
6.91185
11.0761
17.0431
25.1874
35.6849
48.9372
62.8185
89.056
6.10961e-13
2.06552e-12
6.00815e-12
1.79767e-11
5.39674e-11
1.62087e-10
4.86616e-10
1.45909e-09
4.36568e-09
1.30209e-08
3.86697e-08
1.14226e-07
3.3525e-07
9.76577e-07
2.81954e-06
8.0522e-06
2.2686e-05
6.28475e-05
0.000170582
0.000452128
0.00116623
0.00292087
0.00708664
0.0166221
0.0376531
0.0822764
0.17329
0.351523
0.686468
1.28968
2.33043
4.04762
6.75704
10.8354
16.6914
24.703
35.0628
48.2111
62.0217
88.2741
6.12704e-13
2.07204e-12
6.0305e-12
1.8058e-11
5.42687e-11
1.63216e-10
4.90847e-10
1.47491e-09
4.42444e-09
1.32362e-08
3.94456e-08
1.16949e-07
3.44524e-07
1.00702e-06
2.91548e-06
8.33969e-06
2.35e-05
6.49995e-05
0.000175841
0.00046379
0.00118937
0.00295831
0.00712706
0.0166057
0.0373734
0.0811955
0.170167
0.343788
0.669267
1.25461
2.26414
3.93063
6.56365
10.5349
16.2526
24.0992
34.3067
47.3296
61.0599
87.3411
6.14461e-13
2.07875e-12
6.05336e-12
1.81406e-11
5.45793e-11
1.64428e-10
4.95637e-10
1.4937e-09
4.49696e-09
1.35101e-08
4.04566e-08
1.20581e-07
3.5718e-07
1.04952e-06
3.05243e-06
8.75846e-06
2.47138e-05
6.82834e-05
0.000184081
0.000482649
0.00122801
0.00302779
0.00722518
0.0166752
0.0372015
0.0801793
0.166878
0.335234
0.649785
1.21438
2.18764
3.7953
6.33988
10.1878
15.7473
23.4144
33.475
46.3677
60.028
86.3627
6.1717e-13
2.08629e-12
6.07331e-12
1.82119e-11
5.48676e-11
1.65659e-10
5.00833e-10
1.51533e-09
4.58411e-09
1.38525e-08
4.17601e-08
1.25411e-07
3.74516e-07
1.10958e-06
3.25146e-06
9.38887e-06
2.66083e-05
7.35022e-05
0.000197229
0.000512639
0.0012902
0.00314174
0.00740139
0.0168778
0.03722
0.0793454
0.16357
0.32601
0.628063
1.16874
2.10009
3.64031
6.08476
9.79539
15.1816
22.68
32.5942
45.3602
58.964
85.3936
6.16642e-13
2.08307e-12
6.06898e-12
1.82251e-11
5.50072e-11
1.66513e-10
5.05135e-10
1.53557e-09
4.67327e-09
1.42321e-08
4.32987e-08
1.3149e-07
3.97494e-07
1.19328e-06
3.54514e-06
1.03712e-05
2.95687e-05
8.13139e-05
0.000216184
0.000555365
0.0013789
0.00331086
0.00768244
0.0172307
0.0374099
0.0787104
0.160575
0.317546
0.608483
1.12867
2.02502
3.50961
5.87108
9.46713
14.7169
22.115
31.9244
44.6036
58.1836
84.7115
6.14417e-13
2.07602e-12
6.05526e-12
1.82081e-11
5.50678e-11
1.67152e-10
5.09212e-10
1.55671e-09
4.77487e-09
1.46889e-08
4.52594e-08
1.39668e-07
4.29829e-07
1.31817e-06
4.02407e-06
1.1904e-05
3.39727e-05
9.3666e-05
0.000250788
0.000657069
0.00165927
0.00398045
0.00904258
0.019608
0.0410395
0.0835668
0.166154
0.322623
0.610814
1.12489
2.01031
3.47848
5.81831
9.40051
14.6972
22.1674
32.0684
44.8595
58.5656
85.2006
6.12691e-13
2.07169e-12
6.05072e-12
1.82136e-11
5.52066e-11
1.68044e-10
5.14632e-10
1.5834e-09
4.90742e-09
1.52832e-08
4.794e-08
1.51189e-07
4.77444e-07
1.52389e-06
4.76409e-06
1.42528e-05
4.57182e-05
0.000254722
0.00147392
0.00574191
0.0158022
0.0340868
0.062446
0.10275
0.158113
0.236359
0.355999
0.553636
0.892688
1.47569
2.45855
4.06804
6.62061
10.5215
16.2321
24.1372
34.4831
47.6539
61.5962
88.0396
6.12387e-13
2.07206e-12
6.05332e-12
1.82288e-11
5.53624e-11
1.68994e-10
5.20657e-10
1.61386e-09
5.06781e-09
1.60209e-08
5.15279e-08
1.67068e-07
5.50218e-07
1.86858e-06
5.70235e-06
3.6185e-05
0.00150482
0.0155134
0.0649442
0.164995
0.316141
0.507526
0.722319
0.94277
1.15737
1.37125
1.61443
1.94915
2.46296
3.28343
4.62251
6.73578
9.97454
14.7157
21.3316
30.1303
41.2302
54.8427
68.8041
93.9959
6.12466e-13
2.07233e-12
6.053e-12
1.82431e-11
5.55218e-11
1.70114e-10
5.27377e-10
1.64955e-09
5.25589e-09
1.69355e-08
5.6212e-08
1.89015e-07
6.69291e-07
2.39707e-06
7.93092e-06
0.00323966
0.0726925
0.345562
0.81256
1.35704
1.90569
2.40977
2.84724
3.22121
3.56416
3.93635
4.41428
5.08112
6.05608
7.50517
9.66017
12.7371
17.0396
22.8677
30.499
40.0873
51.5544
64.9665
78.113
100.506
6.10799e-13
2.0669e-12
6.03797e-12
1.82238e-11
5.55685e-11
1.71025e-10
5.33434e-10
1.68734e-09
5.45863e-09
1.8031e-08
6.20799e-08
2.20114e-07
8.62123e-07
3.29133e-06
2.37189e-05
0.129641
0.927813
2.09054
3.00841
3.62957
4.08699
4.43982
4.78889
5.18225
5.71621
6.49874
7.56545
8.95988
10.8507
13.333
16.4741
20.4463
25.4966
31.9062
39.8899
49.5503
60.6612
73.2779
85.172
104.464
6.10621e-13
2.06442e-12
6.02455e-12
1.81888e-11
5.55339e-11
1.71654e-10
5.3866e-10
1.72426e-09
5.67016e-09
1.92656e-08
6.92406e-08
2.63406e-07
1.16993e-06
5.40288e-06
0.000143692
1.63214
3.45915
3.93468
4.09408
4.23025
4.36437
4.57205
5.0662
5.88171
7.16105
8.98806
10.815
12.6229
14.9206
17.6644
21.1107
25.5506
31.2255
38.3218
46.8678
56.8056
67.6711
79.5272
90.1584
106.386
4.2226e-13
1.98404e-12
6.02935e-12
1.8191e-11
5.55439e-11
1.72178e-10
5.43618e-10
1.75882e-09
5.87774e-09
2.06072e-08
7.71148e-08
3.22488e-07
1.60843e-06
1.00718e-05
0.000589767
6.8329
3.72122
2.75033
2.73392
3.04746
3.00485
3.21378
4.2826
6.84661
10.1437
14.7104
17.8511
20.3108
23.1346
26.2249
29.6469
33.8228
39.1447
45.8581
53.967
63.3916
73.4242
84.2014
93.4159
106.822
4.17507e-13
1.95968e-12
5.99004e-12
1.81193e-11
5.54436e-11
1.72276e-10
5.47116e-10
1.78504e-09
6.0622e-09
2.17968e-08
8.5107e-08
3.86843e-07
2.12035e-06
1.69376e-05
0.0011944
9.92643
4.89361
22.893
39.4811
55.3895
64.9554
67.6083
66.639
62.3124
57.9395
58.547
61.8846
67.8477
75.9484
85.7901
94.1814
105.802
6.0632e-13
2.04728e-12
5.97405e-12
1.80479e-11
5.53051e-11
1.72171e-10
5.48677e-10
1.80214e-09
6.19258e-09
2.26737e-08
9.18771e-08
4.36726e-07
2.59592e-06
2.19938e-05
0.00150238
9.7479
15.2591
45.1487
67.6441
80.3965
81.645
77.175
68.1711
59.1275
55.7153
57.7097
61.8671
68.6185
76.8726
86.433
93.9625
104.028
6.04729e-13
2.04281e-12
5.95731e-12
1.79861e-11
5.50817e-11
1.71585e-10
5.47378e-10
1.80537e-09
6.23523e-09
2.31325e-08
9.52205e-08
4.67935e-07
2.86168e-06
2.51472e-05
0.00168421
9.70528
16.9166
48.2034
71.5995
81.5699
78.3346
70.871
60.8091
53.943
53.5387
56.0248
60.7846
68.3233
76.7763
86.1023
92.9083
101.962
6.04296e-13
2.0412e-12
5.94978e-12
1.7943e-11
5.48846e-11
1.70756e-10
5.44366e-10
1.79407e-09
6.19936e-09
2.29994e-08
9.49147e-08
4.65393e-07
2.82292e-06
2.44979e-05
0.0015698
8.85565
17.277
48.4993
72.3611
81.3859
76.4338
67.1054
57.3913
52.3903
52.6124
55.2133
60.2129
67.6596
75.9112
85.0179
91.4455
100.077
6.04219e-13
2.04097e-12
5.9491e-12
1.79409e-11
5.48781e-11
1.70736e-10
5.44303e-10
1.79387e-09
6.19872e-09
2.29973e-08
9.49077e-08
4.65362e-07
2.82285e-06
2.44973e-05
0.00156978
8.85562
17.2773
48.5
72.3618
81.3866
76.4346
67.1059
57.3918
52.391
52.6129
55.214
60.2139
67.6607
75.9123
85.0189
91.4465
100.078
6.04679e-13
2.04265e-12
5.95689e-12
1.7985e-11
5.50798e-11
1.71582e-10
5.47375e-10
1.80535e-09
6.23521e-09
2.31316e-08
9.52125e-08
4.67815e-07
2.85939e-06
2.51237e-05
0.00168444
9.70555
16.9177
48.206
71.6024
81.573
78.3378
70.8733
60.8108
53.9437
53.5388
56.025
60.7845
68.3229
76.7756
86.1014
92.9065
101.959
6.06052e-13
2.04693e-12
5.97348e-12
1.80461e-11
5.5301e-11
1.72161e-10
5.48666e-10
1.80213e-09
6.19291e-09
2.26752e-08
9.18826e-08
4.36669e-07
2.59279e-06
2.19488e-05
0.00150289
9.74869
15.2607
45.1533
67.6479
80.3983
81.645
77.1732
68.1674
59.1223
55.71
57.7035
61.8615
68.6141
76.8708
86.4348
93.9671
104.035
6.07294e-13
2.0514e-12
5.98909e-12
1.81024e-11
5.54486e-11
1.72329e-10
5.47306e-10
1.7856e-09
6.06428e-09
2.18033e-08
8.51308e-08
3.86869e-07
2.11756e-06
1.68901e-05
0.00119504
9.92616
4.89424
22.895
39.4836
55.3899
64.9528
67.6043
66.635
62.3096
57.9367
58.5429
61.8806
67.8436
75.9437
85.7851
94.1756
105.797
6.0916e-13
2.05778e-12
6.00526e-12
1.81462e-11
5.55014e-11
1.72129e-10
5.43552e-10
1.75878e-09
5.87785e-09
2.0611e-08
7.71256e-08
3.22577e-07
1.60717e-06
1.00169e-05
0.000590491
6.83337
3.72128
2.75057
2.7344
3.04827
3.00548
3.2143
4.28333
6.84747
10.1443
14.7108
17.8507
20.3093
23.1318
26.2213
29.6431
33.8194
39.1422
45.8565
53.966
63.3907
73.4221
84.198
93.4097
106.813
6.10535e-13
2.06398e-12
6.02309e-12
1.81856e-11
5.55281e-11
1.71634e-10
5.38627e-10
1.7242e-09
5.67056e-09
1.92681e-08
6.9261e-08
2.63452e-07
1.17106e-06
5.36292e-06
0.000144096
1.63248
3.45854
3.93461
4.09447
4.23084
4.36498
4.57256
5.06669
5.88226
7.16149
8.98794
10.814
12.6212
14.9185
17.6621
21.1083
25.5483
31.2235
38.3202
46.8666
56.805
67.6704
79.5268
90.1563
106.382
6.10861e-13
2.06719e-12
6.03887e-12
1.82261e-11
5.55788e-11
1.7106e-10
5.33563e-10
1.68773e-09
5.4603e-09
1.80362e-08
6.21123e-08
2.20137e-07
8.63992e-07
3.27148e-06
2.37762e-05
0.12961
0.927506
2.09012
3.00827
3.6299
4.0876
4.44052
4.78947
5.18275
5.71666
6.49913
7.56573
8.96002
10.8506
13.3324
16.4728
20.4443
25.4943
31.9039
39.8879
49.5491
60.6603
73.2782
85.1709
104.46
6.12519e-13
2.07249e-12
6.05361e-12
1.82465e-11
5.55321e-11
1.70153e-10
5.27499e-10
1.65004e-09
5.25751e-09
1.69417e-08
5.62405e-08
1.89059e-07
6.70115e-07
2.39267e-06
7.92085e-06
0.00324084
0.0726957
0.345487
0.812427
1.35706
1.90611
2.4106
2.84836
3.22254
3.56557
3.93785
4.41599
5.08312
6.05841
7.50775
9.66283
12.7397
17.0419
22.8698
30.5007
40.089
51.5558
64.9693
78.1151
100.509
6.12302e-13
2.07191e-12
6.05325e-12
1.82283e-11
5.53639e-11
1.69e-10
5.207e-10
1.61403e-09
5.06861e-09
1.6024e-08
5.15431e-08
1.67116e-07
5.50456e-07
1.86768e-06
5.70239e-06
3.61819e-05
0.00150531
0.0155189
0.0649569
0.165011
0.316228
0.507765
0.722781
0.943493
1.15832
1.37236
1.61571
1.95058
2.4645
3.28505
4.62416
6.7374
9.97603
14.717
21.3326
30.1311
41.2306
54.8447
68.8058
93.9995
6.12729e-13
2.07183e-12
6.05134e-12
1.82154e-11
5.52151e-11
1.68075e-10
5.14753e-10
1.5838e-09
4.90888e-09
1.52882e-08
4.79575e-08
1.51253e-07
4.77706e-07
1.52334e-06
4.76639e-06
1.42625e-05
4.57294e-05
0.000254922
0.00147499
0.00574555
0.0158103
0.0341033
0.0624808
0.102818
0.158222
0.236493
0.356139
0.553748
0.892732
1.47562
2.45826
4.06745
6.61955
10.5199
16.2298
24.1344
34.4795
47.6516
61.5937
88.0396
6.14482e-13
2.07619e-12
6.05602e-12
1.82114e-11
5.50764e-11
1.67183e-10
5.0932e-10
1.55707e-09
4.77614e-09
1.46934e-08
4.52753e-08
1.39719e-07
4.30067e-07
1.3185e-06
4.02433e-06
1.19084e-05
3.39913e-05
9.37086e-05
0.000250888
0.000657295
0.00165947
0.00398101
0.00904144
0.0196058
0.0410347
0.0835499
0.166122
0.322551
0.610696
1.12468
2.00993
3.47788
5.8174
9.39922
14.6955
22.1654
32.066
44.8581
58.5646
85.2011
6.16727e-13
2.08341e-12
6.06974e-12
1.82279e-11
5.50196e-11
1.66551e-10
5.05259e-10
1.53598e-09
4.67462e-09
1.42365e-08
4.33135e-08
1.31536e-07
3.97654e-07
1.19381e-06
3.54645e-06
1.03723e-05
2.9571e-05
8.13298e-05
0.000216232
0.000555413
0.00137915
0.00331055
0.00768097
0.0172257
0.0374019
0.0786987
0.160554
0.317518
0.608425
1.12857
2.02492
3.5095
5.87105
9.46729
14.7175
22.1163
31.9265
44.607
58.1878
84.7159
6.17195e-13
2.08645e-12
6.074e-12
1.8214e-11
5.48751e-11
1.65687e-10
5.00937e-10
1.5157e-09
4.58536e-09
1.38565e-08
4.17732e-08
1.25453e-07
3.74645e-07
1.10999e-06
3.25273e-06
9.39199e-06
2.66141e-05
7.35083e-05
0.000197227
0.000512636
0.00128998
0.00314147
0.00740183
0.0168771
0.037212
0.0793274
0.163535
0.325947
0.62796
1.16859
2.09988
3.64006
6.08448
9.79513
15.1815
22.6803
32.5947
45.3616
58.9658
85.3954
6.14566e-13
2.0791e-12
6.05442e-12
1.81445e-11
5.45935e-11
1.64477e-10
4.95797e-10
1.4942e-09
4.49849e-09
1.35148e-08
4.0471e-08
1.20624e-07
3.57311e-07
1.0499e-06
3.05354e-06
8.7616e-06
2.47218e-05
6.83037e-05
0.000184115
0.000482735
0.00122822
0.00302771
0.00722514
0.0166768
0.0372055
0.0801878
0.166895
0.335267
0.649843
1.21449
2.18781
3.79558
6.34031
10.1884
15.7481
23.4157
33.4767
46.3702
60.0309
86.3672
6.12914e-13
2.0727e-12
6.0324e-12
1.80634e-11
5.42844e-11
1.63256e-10
4.90955e-10
1.47521e-09
4.42533e-09
1.32391e-08
3.94549e-08
1.16979e-07
3.44616e-07
1.00729e-06
2.91622e-06
8.34152e-06
2.3504e-05
6.50068e-05
0.000175848
0.000463774
0.00118911
0.00295788
0.00712663
0.0166034
0.0373688
0.0811861
0.17015
0.343763
0.669236
1.25458
2.26415
3.93073
6.56391
10.5354
16.2534
24.1004
34.3085
47.3323
61.0632
87.3456
6.111e-13
2.06593e-12
6.0096e-12
1.79815e-11
5.39809e-11
1.62129e-10
4.86743e-10
1.45949e-09
4.36691e-09
1.30247e-08
3.86816e-08
1.14262e-07
3.35358e-07
9.76888e-07
2.8204e-06
8.05441e-06
2.26916e-05
6.28592e-05
0.000170609
0.000452111
0.00116631
0.0029213
0.00708642
0.0166217
0.0376517
0.082273
0.173282
0.351504
0.686422
1.28958
2.33022
4.04721
6.75633
10.8343
16.6897
24.7008
35.0601
48.2086
62.0199
88.2738
6.10743e-13
2.06456e-12
6.00221e-12
1.79441e-11
5.38096e-11
1.61389e-10
4.83702e-10
1.4475e-09
4.32119e-09
1.28557e-08
3.80764e-08
1.12167e-07
3.28351e-07
9.54317e-07
2.75066e-06
7.84904e-06
2.21184e-05
6.13679e-05
0.000167007
0.000444299
0.00115156
0.00289819
0.0070667
0.0166598
0.037916
0.0831986
0.175862
0.357787
0.700268
1.31768
2.38324
4.14077
6.91109
11.075
17.0418
25.1862
35.6844
48.9382
62.8216
89.0618
6.10712e-13
2.0639e-12
5.99721e-12
1.79166e-11
5.36802e-11
1.60827e-10
4.81381e-10
1.4383e-09
4.28612e-09
1.27265e-08
3.76177e-08
1.10592e-07
3.23138e-07
9.377e-07
2.69989e-06
7.70094e-06
2.17113e-05
6.03081e-05
0.000164502
0.000438904
0.00114118
0.00288278
0.00705584
0.0166955
0.0381267
0.0839142
0.177828
0.362535
0.710658
1.33866
2.42259
4.20991
7.02496
11.2518
17.2995
25.5415
36.1446
49.4856
63.4213
89.6604
6.09773e-13
2.05999e-12
5.98329e-12
1.78649e-11
5.34902e-11
1.60133e-10
4.78865e-10
1.42924e-09
4.25387e-09
1.26139e-08
3.7233e-08
1.09312e-07
3.19001e-07
9.24753e-07
2.6608e-06
7.58781e-06
2.13989e-05
5.94967e-05
0.00016252
0.000434433
0.00113218
0.00286715
0.00703549
0.0166886
0.0381998
0.0842511
0.178868
0.365204
0.716733
1.35128
2.44667
4.25289
7.09612
11.363
17.4613
25.764
36.4312
49.8284
63.7913
90.0162
6.09703e-13
2.05901e-12
5.97689e-12
1.78342e-11
5.33572e-11
1.59595e-10
4.76802e-10
1.42165e-09
4.22687e-09
1.25205e-08
3.69177e-08