/*--------------------------------*- C++ -*----------------------------------*\
| =========                 |                                                 |
| \\      /  F ield         | OpenFOAM: The Open Source CFD Toolbox           |
|  \\    /   O peration     | Version:  2412                                  |
|   \\  /    A nd           | Website:  www.openfoam.com                      |
|    \\/     M anipulation  |                                                 |
\*---------------------------------------------------------------------------*/
FoamFile
{
    version     2.0;
    format      ascii;
    arch        "LSB;label=32;scalar=64";
    class       volScalarField;
    location    "5";
    object      scr1;
}
// * * * * * * * * * * * * * * * * * * * * * * * * * * * * * * * * * * * * * //

dimensions      [0 1 -1 0 0 0 0];

internalField   nonuniform List<scalar> 
47360
(
5.14767e-07
1.97527e-06
5.67442e-06
1.65579e-05
4.77943e-05
0.000135944
0.000380516
0.00104741
0.00283487
0.00754229
0.0197053
0.0504255
0.125873
0.304912
0.712946
1.60124
3.44086
7.05452
13.7741
25.592
45.2366
76.1069
121.965
186.44
272.239
380.602
510.518
659.209
821.688
992.93
1166.85
1339.33
1505.98
1664
1811.02
1944.1
2061.89
2162.32
2239.32
2326.13
5.14774e-07
1.97693e-06
5.68888e-06
1.66295e-05
4.8093e-05
0.000137065
0.000384463
0.00106053
0.0028767
0.00767013
0.0200824
0.0514909
0.128759
0.312328
0.731011
1.64256
3.52974
7.2331
14.111
26.1857
46.2221
77.6476
124.257
189.665
276.621
386.281
517.739
667.986
832.276
1005.17
1180.9
1354.94
1523.1
1682.56
1830.51
1964.51
2082.84
2183.73
2260.99
2348.04
5.15168e-07
1.98024e-06
5.70762e-06
1.67152e-05
4.84387e-05
0.000138353
0.000388991
0.00107573
0.00292576
0.00782252
0.0205381
0.0527971
0.132333
0.321587
0.753642
1.69436
3.64067
7.45449
14.5239
26.9053
47.4019
79.4709
126.945
193.467
281.83
393.222
526.811
679.586
846.879
1023
1202.36
1379.85
1551.55
1714.11
1864.97
2001.44
2121.77
2224.22
2302.6
2390.66
5.15407e-07
1.98293e-06
5.72471e-06
1.67973e-05
4.87809e-05
0.000139673
0.000393781
0.00109237
0.00298112
0.00799997
0.0210841
0.0544045
0.136834
0.33349
0.783231
1.76299
3.78926
7.75331
15.0848
27.8875
49.0211
81.9896
130.684
198.787
289.188
403.122
539.906
696.508
868.374
1049.6
1234.59
1417.79
1595.28
1763.14
1919.04
2059.78
2183.81
2289.09
2369.72
2459.72
5.15556e-07
1.98524e-06
5.74052e-06
1.68781e-05
4.91309e-05
0.00014108
0.000399062
0.00111142
0.00304652
0.00821687
0.0217707
0.0564878
0.142816
0.349708
0.824413
1.86053
4.00442
8.19456
15.9286
29.3926
51.5388
85.9509
136.606
207.256
300.907
418.898
560.751
723.544
902.908
1092.79
1287.45
1480.76
1668.46
1845.85
2010.44
2158.38
2288.59
2398.26
2482.53
2574.12
5.16265e-07
1.98952e-06
5.76184e-06
1.69753e-05
4.95387e-05
0.000142718
0.000405306
0.0011344
0.00312729
0.00849175
0.0226628
0.059274
0.15103
0.372661
0.884306
2.00681
4.3372
8.89759
17.3022
31.8736
55.7211
92.5998
146.744
222.251
322.683
449.988
604.314
782.813
980.746
1190.23
1403.8
1613.78
1815.21
2002.34
2173.83
2326.3
2460.03
2570.72
2656.17
2742.4
5.17289e-07
1.99475e-06
5.78613e-06
1.70829e-05
5.00024e-05
0.000144603
0.000412622
0.00116157
0.00322543
0.00883448
0.0238175
0.0630217
0.16254
0.40626
0.975817
2.24089
4.88825
10.0817
19.6267
36.1462
63.2952
105.827
169.775
261.531
386.485
546.523
738.036
951.335
1175.72
1397.7
1610.42
1809.04
1994.52
2166.75
2326.21
2468.87
2595.26
2698.51
2779.07
2854.52
5.20057e-07
2.00564e-06
5.82244e-06
1.72126e-05
5.04848e-05
0.000146427
0.000419925
0.00119017
0.00333664
0.00924776
0.0253177
0.0681789
0.179434
0.458519
1.12646
2.64042
5.83587
12.1568
24.0124
45.6674
84.2945
150.276
254.003
399.988
582.05
786.258
996.508
1197.48
1384.44
1563.38
1735.7
1898.43
2050.85
2190.1
2318.67
2434.17
2538.86
2625.45
2696.27
2765.58
5.15411e-07
1.98806e-06
5.77838e-06
1.71283e-05
5.04185e-05
0.000147118
0.000425082
0.00121792
0.00346206
0.00977368
0.0273857
0.0757831
0.206217
0.546168
1.38878
3.34558
7.62136
16.9791
38.0246
84.5341
172.602
309.396
483.317
672.27
855.338
1018.04
1166.64
1308.07
1438.92
1550.61
1644.91
1726.71
1803.3
1878.52
1956.68
2036.46
2118.5
2196.16
2265.32
2350.16
5.07682e-07
1.96147e-06
5.71282e-06
1.70127e-05
5.03045e-05
0.000147977
0.000431542
0.00125564
0.00363346
0.0105391
0.0304514
0.0878937
0.251304
0.698783
1.86867
4.83965
13.1422
38.9295
106.086
232.619
405.29
587.605
746.627
871.599
980.037
1077.18
1151.52
1198.46
1227.22
1248.62
1271.24
1300.43
1340.29
1392.17
1457.05
1531.99
1614.35
1698.09
1771.9
1871.99
5.04791e-07
1.95293e-06
5.69785e-06
1.70168e-05
5.0582e-05
0.000150039
0.000442962
0.0013114
0.00388502
0.0116582
0.0350792
0.107833
0.327566
0.981968
3.03135
10.5152
42.8238
138.873
312.253
503.416
662.089
766.112
838.043
897.881
926.799
917.901
900.07
884.997
878.404
884.072
903.02
935.395
980.815
1038.36
1106.26
1184.71
1268.21
1350.37
1419.61
1517.5
5.08429e-07
1.96881e-06
5.75257e-06
1.72141e-05
5.14711e-05
0.000153717
0.000460657
0.00138628
0.0042402
0.0131856
0.0421425
0.140154
0.461067
1.71184
7.73167
38.9913
164.285
378.036
590.691
688.987
744.978
775.89
745.644
706.772
663.515
640.093
628.084
630.179
644.207
668.311
702.372
749.588
810.94
878.757
950.378
1024.61
1097.64
1164.6
1217.77
1293.17
5.18969e-07
2.00909e-06
5.866e-06
1.75759e-05
5.26919e-05
0.000158625
0.000481425
0.0014774
0.00467723
0.0151512
0.0527326
0.191629
0.758535
4.57012
26.4987
143.693
426.881
627.106
708.804
688.274
625.978
553.7
491.474
462.734
450.121
451.153
464.411
489.008
524.317
577.737
637.808
703.108
772.509
836.081
892.894
941.031
982.851
1021.18
1053.55
1114.66
5.27964e-07
2.0431e-06
5.95187e-06
1.78773e-05
5.35824e-05
0.000163184
0.000498644
0.00157228
0.0051195
0.0176363
0.0678955
0.281685
1.63697
14.6525
76.2937
386.994
674.776
679.641
566.771
439.45
346.616
315.082
298.893
295.369
314.993
373.302
457.925
520.865
578.681
629.299
665.988
696.461
727.62
760.352
795.371
830.938
864.786
900.799
930.974
989.249
5.36059e-07
2.06419e-06
6.00601e-06
1.79406e-05
5.39306e-05
0.000164203
0.0005076
0.00163849
0.00553275
0.0207364
0.0893119
0.457668
4.02467
37.5356
158.684
712.034
675.719
425.691
212.411
172.768
158.67
164.564
193.801
235.064
491.019
843.274
858.397
815.984
808.309
777.077
732.67
691.613
664.052
674.727
694.405
720.985
750.823
788.874
819.335
876.066
5.10588e-07
1.96445e-06
5.72601e-06
1.71471e-05
5.2011e-05
0.000159759
0.000505629
0.0016754
0.0059785
0.0244367
0.118099
0.772527
8.34775
68.7445
228.983
824.09
222.549
29.048
20.2802
62.0412
144.885
227.177
308.993
315.816
898.61
763.953
427.268
324.598
333.744
375.039
405.492
432.721
463.689
497.201
532.08
571.469
607.387
650.918
675.793
734.478
4.94179e-07
1.90514e-06
5.5552e-06
1.67189e-05
5.08952e-05
0.000158328
0.000508602
0.0017329
0.00645668
0.0282209
0.152292
1.17362
13.1294
91.1755
215.997
668.991
966.727
789.39
535.328
463.41
436.475
438.98
423.51
398.953
366.041
348.383
368.973
413.824
450.741
498.789
522.193
596.212
4.96489e-07
1.91265e-06
5.56516e-06
1.66927e-05
5.08443e-05
0.000158457
0.000513246
0.00177472
0.00681887
0.0313215
0.182846
1.50543
16.5627
93.0058
178.402
553.994
1011.08
840.585
678.474
626.895
590.479
582.522
556.881
520.307
476.996
429.222
378.703
333.369
328.434
384.82
400.998
489.318
4.92281e-07
1.89715e-06
5.50675e-06
1.64973e-05
5.02278e-05
0.0001569
0.000510579
0.00178383
0.00696723
0.0329487
0.197719
1.66919
16.7346
81.8274
148.081
417.645
915.746
806.864
706.688
682.498
651.843
636.667
604.496
563.657
516.19
464.857
411.163
355.415
299.715
311.405
322.149
424.254
5.05668e-07
1.94039e-06
5.60381e-06
1.67049e-05
5.06141e-05
0.000157205
0.00050899
0.00176852
0.0068915
0.0324071
0.193345
1.55701
14.2061
65.11
107.143
298.114
789.411
729.344
690.685
687.186
669.069
647.188
608.63
566.265
516.988
465.832
411.898
357.312
302.167
291.534
282.964
393.477
5.05683e-07
1.94044e-06
5.60394e-06
1.67052e-05
5.0615e-05
0.000157207
0.000508994
0.00176852
0.00689152
0.0324065
0.193341
1.55699
14.2051
65.1092
107.143
298.113
789.392
729.332
690.681
687.185
669.071
647.184
608.626
566.261
516.984
465.827
411.894
357.309
302.165
291.527
282.953
393.467
4.92293e-07
1.89721e-06
5.50721e-06
1.64993e-05
5.02326e-05
0.000156914
0.000510616
0.00178394
0.00696741
0.0329467
0.197687
1.66893
16.7324
81.8218
148.08
417.647
915.723
806.839
706.682
682.499
651.842
636.66
604.489
563.651
516.185
464.853
411.159
355.411
299.698
311.373
322.117
424.228
4.96464e-07
1.9126e-06
5.56495e-06
1.66925e-05
5.08472e-05
0.000158473
0.000513313
0.00177498
0.00681967
0.0313226
0.18282
1.50503
16.5601
92.9937
178.4
554
1011.06
840.578
678.488
626.918
590.493
582.538
556.896
520.323
477.012
429.239
378.72
333.35
328.382
384.773
400.949
489.276
4.94161e-07
1.90512e-06
5.55513e-06
1.67196e-05
5.09005e-05
0.000158342
0.000508666
0.00173316
0.00645779
0.0282223
0.152277
1.17325
13.1265
91.1707
215.998
668.998
966.785
789.407
535.376
463.47
436.526
439.031
423.558
399.002
366.085
348.372
368.909
413.762
450.68
498.73
522.133
596.156
5.1057e-07
1.96444e-06
5.72629e-06
1.71465e-05
5.20134e-05
0.000159793
0.000505709
0.00167568
0.00597958
0.0244404
0.118088
0.77226
8.34557
68.7225
228.96
824.111
222.544
29.041
20.2781
62.0691
144.946
227.214
309.005
315.745
898.628
763.791
427.098
324.531
333.67
374.958
405.406
432.641
463.615
497.131
532.014
571.407
607.327
650.857
675.73
734.416
5.36044e-07
2.06418e-06
6.00616e-06
1.79422e-05
5.39343e-05
0.000164222
0.000507721
0.00163897
0.00553436
0.0207423
0.0893199
0.457507
4.02354
37.5133
158.688
712.064
675.756
425.709
212.42
172.781
158.679
164.576
193.818
235.081
491.116
843.522
858.372
815.956
808.267
777.01
732.57
691.484
663.923
674.613
694.297
720.887
750.736
788.799
819.266
876.002
5.27914e-07
2.04299e-06
5.95184e-06
1.78784e-05
5.35849e-05
0.000163194
0.000498704
0.00157261
0.0051211
0.017642
0.0679183
0.281652
1.63652
14.6402
76.2788
386.914
674.758
679.715
566.78
439.55
346.68
315.144
298.949
295.421
315.045
373.38
458.01
520.941
578.725
629.3
665.937
696.376
727.515
760.239
795.255
830.823
864.678
900.706
930.904
989.205
5.18994e-07
2.00927e-06
5.8667e-06
1.75787e-05
5.27015e-05
0.000158654
0.000481525
0.00147772
0.00467857
0.0151561
0.0527527
0.191685
0.758538
4.56595
26.4958
143.636
426.698
627.109
708.852
688.342
626.04
553.843
491.625
462.877
450.254
451.278
464.537
489.136
524.444
577.871
637.934
703.232
772.617
836.167
892.952
941.059
982.857
1021.18
1053.55
1114.69
5.08501e-07
1.96918e-06
5.75388e-06
1.72187e-05
5.14865e-05
0.000153768
0.00046082
0.00138679
0.00424184
0.0131911
0.0421594
0.140218
0.461305
1.71139
7.73112
38.9783
164.254
377.913
590.447
689.079
744.958
775.898
745.653
706.875
663.673
640.257
628.244
630.339
644.364
668.465
702.526
749.751
811.104
878.923
950.543
1024.78
1097.82
1164.79
1217.96
1293.39
5.04779e-07
1.95291e-06
5.69845e-06
1.70203e-05
5.05916e-05
0.000150073
0.000443082
0.00131185
0.00388655
0.0116637
0.0350964
0.107884
0.32777
0.982513
3.03228
10.5167
42.8147
138.836
312.239
503.25
661.88
766.077
838.075
897.778
926.556
917.911
900.123
885.042
878.443
884.124
903.081
935.456
980.872
1038.42
1106.31
1184.77
1268.27
1350.43
1419.67
1517.58
5.07664e-07
1.96148e-06
5.71243e-06
1.7013e-05
5.03142e-05
0.000148006
0.000431646
0.001256
0.00363462
0.0105432
0.0304656
0.0879364
0.251432
0.699218
1.86994
4.8431
13.1469
38.9372
106.083
232.582
405.241
587.457
746.433
871.473
979.936
1076.99
1151.21
1198.13
1226.87
1248.27
1270.89
1300.07
1339.95
1391.83
1456.71
1531.66
1614.01
1697.74
1771.56
1871.66
5.15399e-07
1.98811e-06
5.7789e-06
1.71294e-05
5.04211e-05
0.000147136
0.000425154
0.00121819
0.00346298
0.00977671
0.0273957
0.0758154
0.20631
0.546419
1.3895
3.3478
7.62671
16.9905
38.0426
84.5567
172.631
309.427
483.314
672.182
855.157
1017.86
1166.49
1307.86
1438.54
1550.15
1644.33
1726.04
1802.57
1877.75
1955.89
2035.65
2117.68
2195.33
2264.48
2349.34
5.2006e-07
2.00568e-06
5.82271e-06
1.72135e-05
5.04903e-05
0.000146455
0.000420013
0.00119046
0.00333755
0.00925056
0.025326
0.0682035
0.179505
0.458704
1.1269
2.64147
5.83862
12.1635
24.026
45.6917
84.3351
150.337
254.082
400.087
582.157
786.332
996.502
1197.41
1384.38
1563.28
1735.59
1898.28
2050.63
2189.82
2318.33
2433.78
2538.43
2624.99
2695.8
2765.1
5.1728e-07
1.99479e-06
5.78652e-06
1.70846e-05
5.00069e-05
0.000144616
0.000412673
0.00116176
0.00322606
0.00883655
0.0238237
0.0630401
0.162591
0.406397
0.976153
2.24162
4.88973
10.0849
19.6336
36.1599
63.3203
105.87
169.842
261.633
386.632
546.723
738.293
951.626
1176.02
1397.98
1610.67
1809.27
1994.78
2167.03
2326.5
2469.18
2595.59
2698.84
2779.41
2854.87
5.16247e-07
1.98949e-06
5.76194e-06
1.69761e-05
4.95423e-05
0.000142731
0.000405349
0.00113454
0.00312773
0.00849314
0.022667
0.0592861
0.151063
0.372749
0.884522
2.00731
4.33824
8.89956
17.3058
31.8804
55.7336
92.622
146.781
222.311
322.773
450.12
604.5
783.063
981.07
1190.63
1404.27
1614.3
1815.78
2002.93
2174.46
2326.94
2460.68
2571.38
2656.84
2743.05
5.15549e-07
1.98526e-06
5.74081e-06
1.6879e-05
4.91343e-05
0.000141092
0.0003991
0.00111154
0.00304688
0.00821793
0.0217737
0.0564961
0.142838
0.349762
0.824539
1.86081
4.00502
8.19573
15.9308
29.3963
51.545
85.9613
136.623
207.284
300.951
418.965
560.847
723.678
903.085
1093.01
1287.74
1481.1
1668.86
1846.3
2010.94
2158.91
2289.15
2398.83
2483.12
2574.71
5.15402e-07
1.98292e-06
5.72469e-06
1.67977e-05
4.87828e-05
0.000139681
0.000393809
0.00109246
0.0029814
0.00800077
0.0210863
0.0544104
0.136849
0.333525
0.783309
1.76316
3.78959
7.75394
15.0859
27.8895
49.0245
81.9951
130.693
198.801
289.211
403.157
539.957
696.581
868.472
1049.73
1234.75
1417.98
1595.51
1763.4
1919.33
2060.09
2184.13
2289.43
2370.07
2460.07
5.15165e-07
1.98025e-06
5.70774e-06
1.67157e-05
4.84405e-05
0.000138359
0.000389012
0.0010758
0.00292595
0.00782305
0.0205396
0.0528009
0.132342
0.321609
0.75369
1.69446
3.64086
7.45484
14.5245
26.9061
47.4027
79.4728
126.949
193.475
281.842
393.238
526.839
679.631
846.938
1023.07
1202.46
1379.97
1551.69
1714.27
1865.14
2001.63
2121.97
2224.42
2302.8
2390.87
5.14772e-07
1.97693e-06
5.68887e-06
1.66295e-05
4.8094e-05
0.00013707
0.000384475
0.00106056
0.00287679
0.00767039
0.0200831
0.0514926
0.128763
0.312337
0.73103
1.6426
3.52981
7.2332
14.111
26.1857
46.2233
77.6488
124.257
189.667
276.627
386.294
517.754
668.006
832.309
1005.21
1180.95
1355.01
1523.18
1682.65
1830.61
1964.63
2082.96
2183.85
2261.11
2348.17
5.14766e-07
1.97527e-06
5.67447e-06
1.65582e-05
4.77942e-05
0.000135942
0.000380516
0.00104742
0.00283489
0.00754235
0.0197055
0.0504258
0.125873
0.304912
0.712942
1.60123
3.44081
7.05441
13.774
25.592
45.2362
76.1067
121.965
186.441
272.241
380.606
510.527
659.221
821.704
992.955
1166.89
1339.37
1506.03
1664.05
1811.08
1944.18
2061.97
2162.4
2239.41
2326.22
3.02909e-12
1.09941e-11
3.18652e-11
9.49212e-11
2.83518e-10
8.46556e-10
2.52395e-09
7.50487e-09
2.22304e-08
6.55201e-08
1.91939e-07
5.58365e-07
1.61183e-06
4.61348e-06
1.30783e-05
3.66469e-05
0.000101223
0.000274607
0.000728916
0.00188573
0.0047382
0.0115295
0.0271072
0.0614716
0.134292
0.282367
0.571088
1.11052
2.07552
3.72757
6.43116
10.6586
16.9661
25.9323
38.0725
53.6981
72.684
95.1124
117.23
154.944
3.03037e-12
1.10039e-11
3.19235e-11
9.51925e-11
2.84666e-10
8.51058e-10
2.54067e-09
7.56486e-09
2.244e-08
6.62338e-08
1.94314e-07
5.66063e-07
1.63615e-06
4.68808e-06
1.33002e-05
3.72825e-05
0.000102977
0.000279186
0.000740354
0.00191287
0.00479762
0.0116509
0.0273353
0.0618576
0.134862
0.283022
0.571443
1.1095
2.07107
3.71556
6.4057
10.6099
16.883
25.8032
37.8829
53.4414
72.3572
94.7267
116.803
154.528
3.03956e-12
1.10413e-11
3.20532e-11
9.5657e-11
2.86308e-10
8.56833e-10
2.56099e-09
7.6362e-09
2.26886e-08
6.70894e-08
1.972e-07
5.75563e-07
1.66654e-06
4.78224e-06
1.35812e-05
3.80878e-05
0.000105163
0.000284873
0.000753842
0.00194271
0.00485929
0.0117609
0.0274992
0.0620185
0.134779
0.282028
0.567986
1.10046
2.05073
3.67442
6.32981
10.4792
16.6747
25.4906
37.4456
52.867
71.6486
93.9084
115.917
153.684
3.0411e-12
1.10506e-11
3.21057e-11
9.59118e-11
2.87419e-10
8.61498e-10
2.57976e-09
7.70901e-09
2.29615e-08
6.80792e-08
2.00671e-07
5.87328e-07
1.70502e-06
4.90349e-06
1.39477e-05
3.91442e-05
0.000108051
0.000292234
0.000771636
0.00198061
0.00493253
0.0118856
0.0276501
0.0620543
0.134235
0.279723
0.561326
1.08433
2.01607
3.6064
6.20643
10.2707
16.345
25.0009
36.7641
51.9737
70.5516
92.6441
114.551
152.387
3.03824e-12
1.10447e-11
3.21162e-11
9.60677e-11
2.88392e-10
8.66269e-10
2.60067e-09
7.79429e-09
2.32914e-08
6.9304e-08
2.05052e-07
6.02456e-07
1.7554e-06
5.06491e-06
1.44435e-05
4.05932e-05
0.000112052
0.000302578
0.000796204
0.00203541
0.00503662
0.0120577
0.0278756
0.0621318
0.133549
0.27669
0.552464
1.0628
1.96968
3.51528
6.0411
9.99104
15.9025
24.3437
35.8474
50.7715
69.0726
90.9348
112.705
150.704
3.05011e-12
1.1092e-11
3.2282e-11
9.66819e-11
2.90695e-10
8.74919e-10
2.63313e-09
7.91541e-09
2.37393e-08
7.09349e-08
2.10883e-07
6.22768e-07
1.82406e-06
5.28873e-06
1.51438e-05
4.26758e-05
0.000117899
0.00031792
0.000833557
0.00211823
0.00520698
0.0123516
0.0282938
0.0625322
0.133243
0.273873
0.543017
1.03845
1.91541
3.40627
5.83995
9.64633
15.351
23.5168
34.6851
49.2373
67.1754
88.7353
110.424
148.729
3.06382e-12
1.11459e-11
3.2467e-11
9.73633e-11
2.93258e-10
8.84781e-10
2.67132e-09
8.06308e-09
2.4303e-08
7.30477e-08
2.18629e-07
6.50419e-07
1.9198e-06
5.60823e-06
1.61665e-05
4.57801e-05
0.000126835
0.00034195
0.000893561
0.00225586
0.00549266
0.012893
0.0291649
0.0636368
0.133991
0.272332
0.534478
1.01317
1.85546
3.28169
5.6054
9.2396
14.6959
22.5314
33.2989
47.4095
64.9234
86.2612
107.945
146.631
3.08374e-12
1.1202e-11
3.26122e-11
9.78799e-11
2.95369e-10
8.93958e-10
2.71031e-09
8.22621e-09
2.49609e-08
7.56377e-08
2.28491e-07
6.86985e-07
2.05097e-06
6.06216e-06
1.76662e-05
5.05215e-05
0.00014105
0.000380822
0.000990429
0.00247471
0.00594376
0.0137373
0.0305652
0.0656559
0.13613
0.272303
0.526531
0.985123
1.78463
3.13044
5.31711
8.7377
13.8886
21.323
31.611
45.2026
62.3588
83.5172
105.184
144.395
3.08101e-12
1.11801e-11
3.25889e-11
9.80108e-11
2.96497e-10
9.00716e-10
2.74382e-09
8.38337e-09
2.56476e-08
7.85596e-08
2.40306e-07
7.33752e-07
2.22805e-06
6.70757e-06
1.99405e-05
5.81369e-05
0.000163768
0.000439426
0.00112942
0.0027819
0.00657776
0.0149486
0.032645
0.0685193
0.138768
0.272221
0.518189
0.957967
1.72031
2.99965
5.07607
8.32612
13.23
20.3337
30.2169
43.5171
60.4843
81.4776
103.149
142.824
3.06387e-12
1.11235e-11
3.24781e-11
9.78762e-11
2.9697e-10
9.05653e-10
2.77491e-09
8.54547e-09
2.64244e-08
8.20801e-08
2.55429e-07
7.97358e-07
2.48052e-06
7.6894e-06
2.37593e-05
7.00929e-05
0.000197542
0.000533851
0.00139792
0.00360347
0.00891487
0.020607
0.0441532
0.0886307
0.169665
0.314565
0.570303
1.01522
1.77499
3.04216
5.09675
8.32217
13.211
20.3947
30.5354
44.2532
61.6851
83.1469
105.254
145.175
3.0452e-12
1.1074e-11
3.24102e-11
9.78589e-11
2.97937e-10
9.12209e-10
2.81557e-09
8.74785e-09
2.74368e-08
8.66756e-08
2.76288e-07
8.88343e-07
2.85846e-06
9.36304e-06
2.9671e-05
8.87436e-05
0.000299777
0.00205969
0.0128206
0.0492812
0.129617
0.263103
0.450706
0.692729
0.995991
1.38539
1.91469
2.67852
3.82666
5.58383
8.2668
12.3301
18.3949
27.0731
38.9913
54.4464
73.4564
95.9887
118.461
156.558
3.04251e-12
1.10778e-11
3.24327e-11
9.79755e-11
2.99179e-10
9.19689e-10
2.86316e-09
8.98621e-09
2.86972e-08
9.24946e-08
3.04847e-07
1.01644e-06
3.45361e-06
1.22389e-05
3.71399e-05
0.000300158
0.0140462
0.13655
0.526226
1.21565
2.12215
3.14429
4.22623
5.34996
6.53442
7.86583
9.47187
11.5124
14.185
17.76
22.8544
29.8352
39.3286
51.5327
66.6645
84.5101
104.593
126.194
146.124
175.575
3.04151e-12
1.10745e-11
3.24024e-11
9.79614e-11
2.99978e-10
9.271e-10
2.91243e-09
9.25723e-09
3.01686e-08
9.97337e-08
3.42746e-07
1.19651e-06
4.4609e-06
1.67051e-05
5.73961e-05
0.0298783
0.596087
2.47535
5.07919
7.56584
9.82802
11.966
14.1295
16.413
19.0002
22.2039
26.2687
31.2988
37.5846
45.3851
55.1906
66.5411
79.4816
93.8656
109.389
125.317
140.841
155.238
166.713
180.677
3.02909e-12
1.10331e-11
3.22871e-11
9.78275e-11
3.00321e-10
9.34142e-10
2.95906e-09
9.55152e-09
3.17789e-08
1.08501e-07
3.91125e-07
1.45713e-06
6.14769e-06
2.44311e-05
0.000211429
1.00359
5.91036
11.2563
14.3838
16.483
18.5882
21.0611
24.0951
27.7708
32.6426
39.1762
47.1022
56.148
66.9448
78.7189
90.2466
100.839
110.27
118.71
126.456
133.637
140.193
146.392
151.244
158.318
3.03211e-12
1.10252e-11
3.22087e-11
9.76347e-11
3.00214e-10
9.3975e-10
2.99971e-09
9.84913e-09
3.34506e-08
1.18632e-07
4.50682e-07
1.83203e-06
8.88686e-06
4.40404e-05
0.0013971
9.44174
16.1262
16.4667
17.0195
18.814
20.6909
23.1073
27.1786
33.3856
42.2012
52.7106
59.6625
62.6933
67.0925
71.8657
77.5035
83.895
90.5382
97.0615
103.355
109.452
115.126
121.042
125.862
133.513
2.81068e-12
1.08319e-11
3.20526e-11
9.73183e-11
2.99823e-10
9.43397e-10
3.03497e-09
1.01256e-08
3.50667e-08
1.29807e-07
5.16523e-07
2.35681e-06
1.28528e-05
8.86261e-05
0.00581396
28.331
12.7526
9.75739
10.9937
14.283
14.0895
14.286
18.2053
28.027
37.0495
50.8291
53.1085
52.5039
54.363
58.5333
62.9854
68.0184
73.6688
79.6402
85.6707
91.8047
97.6686
104.321
109.816
118.695
2.81667e-12
1.07578e-11
3.18503e-11
9.68716e-11
2.99304e-10
9.44573e-10
3.06451e-09
1.03323e-08
3.65934e-08
1.39605e-07
5.85663e-07
2.9294e-06
1.75842e-05
0.000154198
0.0117952
33.7597
25.6132
55.4229
49.7682
46.3571
45.9213
50.4982
54.9803
59.8372
64.897
70.3414
76.0816
82.1888
88.168
95.3863
101.253
110.43
2.9938e-12
1.08738e-11
3.17707e-11
9.64162e-11
2.98096e-10
9.42694e-10
3.07513e-09
1.04535e-08
3.76486e-08
1.46714e-07
6.44599e-07
3.37288e-06
2.20166e-05
0.000202308
0.0148365
32.3173
59.305
67.4822
64.2207
65.2699
64.6671
66.4922
65.9623
64.1537
62.1074
63.9344
69.6621
75.6729
81.6166
89.0477
95.0276
104.021
2.9884e-12
1.08571e-11
3.1688e-11
9.60611e-11
2.96697e-10
9.39067e-10
3.06736e-09
1.04861e-08
3.80087e-08
1.5061e-07
6.73441e-07
3.6539e-06
2.44655e-05
0.00023211
0.0166234
30.7695
55.7557
62.9873
65.2057
69.9704
71.8438
74.2757
74.0878
72.6805
70.0834
66.6588
65.2234
69.1036
75.5046
83.4402
89.6272
99.0167
2.98567e-12
1.08457e-11
3.16301e-11
9.57136e-11
2.95134e-10
9.32317e-10
3.04275e-09
1.03894e-08
3.76941e-08
1.4934e-07
6.70104e-07
3.62504e-06
2.40489e-05
0.000225349
0.0154773
26.5331
52.8676
58.6192
63.9295
70.8922
74.1102
76.1347
76.6476
75.212
72.5942
69.1394
65.0493
65.4157
71.0812
79.3002
85.6302
95.3489
2.98567e-12
1.08457e-11
3.163e-11
9.5713e-11
2.95131e-10
9.32303e-10
3.04269e-09
1.03891e-08
3.76932e-08
1.49336e-07
6.70091e-07
3.62493e-06
2.40488e-05
0.000225345
0.0154771
26.5329
52.8671
58.6184
63.9293
70.8926
74.1106
76.1347
76.6473
75.2116
72.5938
69.1388
65.0488
65.4145
71.0792
79.2979
85.6279
95.3465
2.98834e-12
1.08569e-11
3.16875e-11
9.60614e-11
2.96707e-10
9.39111e-10
3.06754e-09
1.04866e-08
3.80105e-08
1.50611e-07
6.73375e-07
3.65286e-06
2.44422e-05
0.00023189
0.0166256
30.7698
55.7549
62.9862
65.2058
69.9714
71.8451
74.2761
74.0875
72.6799
70.0825
66.6579
65.2203
69.0977
75.4983
83.4338
89.6208
99.0102
2.99345e-12
1.08741e-11
3.17728e-11
9.64196e-11
2.98113e-10
9.42771e-10
3.07544e-09
1.04549e-08
3.76541e-08
1.46739e-07
6.44639e-07
3.3724e-06
2.19831e-05
0.000201878
0.0148416
32.3178
59.3054
67.4814
64.2213
65.2715
64.6692
66.4945
65.9644
64.1548
62.1045
63.9273
69.6544
75.6642
81.6074
89.0377
95.0173
104.01
3.00296e-12
1.09096e-11
3.18991e-11
9.68801e-11
2.99315e-10
9.44679e-10
3.06502e-09
1.03341e-08
3.6602e-08
1.39635e-07
5.8576e-07
2.92937e-06
1.75526e-05
0.00015374
0.0118015
33.7589
25.6165
55.4237
49.7692
46.3571
45.9166
50.4935
54.9744
59.8309
64.8899
70.3337
76.073
82.1794
88.1574
95.3745
101.24
110.415
3.01903e-12
1.09665e-11
3.20379e-11
9.72534e-11
2.99779e-10
9.43408e-10
3.03528e-09
1.01274e-08
3.50733e-08
1.29854e-07
5.16622e-07
2.35773e-06
1.28352e-05
8.80936e-05
0.00582118
28.3307
12.7526
9.75729
10.9952
14.2862
14.0927
14.2899
18.2124
28.036
37.0542
50.8304
53.105
52.4967
54.3528
58.5205
62.9709
68.0021
73.6517
79.623
85.654
91.7886
97.6528
104.306
109.8
118.677
3.03163e-12
1.10229e-11
3.22026e-11
9.76287e-11
3.00209e-10
9.39779e-10
2.99985e-09
9.85049e-09
3.34565e-08
1.1867e-07
4.50858e-07
1.83253e-06
8.89572e-06
4.36252e-05
0.00140121
9.44213
16.1244
16.4653
17.0198
18.8158
20.694
23.1117
27.1847
33.3932
42.2075
52.7104
59.6527
62.6764
67.0708
71.8409
77.4761
83.8649
90.5061
97.0289
103.323
109.422
115.099
121.019
125.841
133.495
3.02852e-12
1.10323e-11
3.22857e-11
9.78195e-11
3.00319e-10
9.34172e-10
2.95933e-09
9.55241e-09
3.17855e-08
1.08522e-07
3.91342e-07
1.45693e-06
6.16567e-06
2.42076e-05
0.000212042
1.00322
5.9082
11.2544
14.3832
16.4831
18.5896
21.0639
24.0997
27.7773
32.6507
39.1853
47.1113
56.156
66.9498
78.7171
90.235
100.817
110.239
118.673
126.417
133.597
140.156
146.36
151.218
158.302
3.04108e-12
1.1073e-11
3.23991e-11
9.79625e-11
2.9999e-10
9.27155e-10
2.91274e-09
9.25837e-09
3.01746e-08
9.97534e-08
3.4291e-07
1.19641e-06
4.46816e-06
1.665e-05
5.72739e-05
0.0298871
0.596124
2.4746
5.07795
7.56506
9.82842
11.9678
14.1329
16.4182
19.0077
22.2141
26.2821
31.3157
37.6054
45.4088
55.2155
66.5654
79.504
93.8852
109.405
125.329
140.85
155.246
166.719
180.687
3.04272e-12
1.10794e-11
3.24409e-11
9.79968e-11
2.99254e-10
9.19927e-10
2.86397e-09
8.98887e-09
2.87068e-08
9.25272e-08
3.04985e-07
1.01686e-06
3.45521e-06
1.22304e-05
3.71204e-05
0.000300107
0.0140508
0.136594
0.526285
1.21551
2.1221
3.14456
4.22714
5.35177
6.5374
7.87029
9.47821
11.521
14.1963
17.7744
22.8718
29.8555
39.3511
51.5564
66.6881
84.5325
104.614
126.215
146.144
175.599
3.04538e-12
1.10747e-11
3.24145e-11
9.78729e-11
2.97988e-10
9.12433e-10
2.81644e-09
8.75093e-09
2.74476e-08
8.67144e-08
2.76417e-07
8.88863e-07
2.86027e-06
9.3572e-06
2.96881e-05
8.88178e-05
0.000299851
0.00206161
0.0128303
0.0493102
0.129662
0.263153
0.450774
0.692884
0.996294
1.38584
1.91532
2.67937
3.82775
5.58515
8.26834
12.3318
18.3966
27.0745
38.992
54.4464
73.4549
95.9882
118.46
156.56
3.06386e-12
1.11232e-11
3.24792e-11
9.789e-11
2.96997e-10
9.0581e-10
2.77549e-09
8.54765e-09
2.64324e-08
8.21095e-08
2.55536e-07
7.97707e-07
2.48229e-06
7.69086e-06
2.37583e-05
7.01252e-05
0.00019769
0.000534205
0.00139883
0.00360538
0.00891819
0.0206109
0.0441562
0.0886106
0.169612
0.31445
0.570102
1.01488
1.77444
3.04131
5.09553
8.32052
13.2089
20.392
30.5321
44.249
61.6799
83.1424
105.249
145.172
3.08103e-12
1.11808e-11
3.25888e-11
9.80148e-11
2.96548e-10
9.00868e-10
2.74441e-09
8.38546e-09
2.5655e-08
7.85851e-08
2.40396e-07
7.34033e-07
2.22908e-06
6.71109e-06
1.99482e-05
5.81346e-05
0.000163762
0.00043951
0.00112969
0.00278254
0.00657834
0.0149516
0.0326296
0.0684803
0.138752
0.272196
0.518185
0.958034
1.72057
3.00022
5.07714
8.3279
13.2326
20.3373
30.2215
43.5222
60.4897
81.4832
103.155
142.828
3.08365e-12
1.12024e-11
3.26151e-11
9.78886e-11
2.95397e-10
8.94048e-10
2.71064e-09
8.22745e-09
2.49655e-08
7.56544e-08
2.28551e-07
6.87187e-07
2.0516e-06
6.06426e-06
1.76731e-05
5.0537e-05
0.000141068
0.000380798
0.000990285
0.00247432
0.00594299
0.0137342
0.0305719
0.0656663
0.136089
0.272233
0.526414
0.984966
1.78446
3.13035
5.31729
8.73846
13.8903
21.3262
31.616
45.2096
62.3673
83.5274
105.195
144.406
3.06382e-12
1.11463e-11
3.24685e-11
9.73704e-11
2.93296e-10
8.84926e-10
2.67178e-09
8.06446e-09
2.43071e-08
7.30604e-08
2.18669e-07
6.50546e-07
1.92019e-06
5.60933e-06
1.61697e-05
4.57892e-05
0.000126855
0.000341983
0.000893566
0.00225559
0.00549278
0.012887
0.0291546
0.0636331
0.13399
0.272342
0.534519
1.01328
1.8557
3.28217
5.60632
9.24118
14.6985
22.5352
33.3043
47.4167
64.9323
86.2714
107.955
146.641
3.05013e-12
1.10924e-11
3.22837e-11
9.66882e-11
2.90719e-10
8.75007e-10
2.63344e-09
7.91648e-09
2.37428e-08
7.09458e-08
2.10917e-07
6.22869e-07
1.82436e-06
5.28953e-06
1.51458e-05
4.268e-05
0.000117908
0.000317931
0.000833519
0.00211856
0.00520435
0.0123492
0.0282955
0.0625223
0.133229
0.273852
0.542993
1.03844
1.91545
3.40645
5.8404
9.64725
15.3527
23.5195
34.689
49.2426
67.1821
88.7431
110.432
148.736
3.03824e-12
1.10447e-11
3.21185e-11
9.60787e-11
2.88415e-10
8.66335e-10
2.60087e-09
7.79494e-09
2.32936e-08
6.93115e-08
2.05077e-07
6.02532e-07
1.75562e-06
5.06551e-06
1.44449e-05
4.05961e-05
0.000112056
0.000302568
0.000796306
0.0020345
0.00503627
0.01206
0.0278699
0.0621234
0.133531
0.276662
0.552426
1.06276
1.96966
3.51534
6.04131
9.99154
15.9035
24.3453
35.8499
50.7751
69.0772
90.9402
112.711
150.709
3.0411e-12
1.10509e-11
3.21056e-11
9.59122e-11
2.87439e-10
8.61571e-10
2.58001e-09
7.7098e-09
2.29638e-08
6.8086e-08
2.0069e-07
5.87383e-07
1.70517e-06
4.90387e-06
1.39486e-05
3.91459e-05
0.000108049
0.000292256
0.000771366
0.00198065
0.0049334
0.0118836
0.0276473
0.062047
0.134221
0.279697
0.561286
1.08428
2.01601
3.60637
6.20648
10.2709
16.3455
25.0019
36.7656
51.9759
70.5544
92.6473
114.555
152.391
3.03955e-12
1.10415e-11
3.20534e-11
9.56575e-11
2.86313e-10
8.56865e-10
2.56113e-09
7.63669e-09
2.26902e-08
6.70938e-08
1.97212e-07
5.75597e-07
1.66663e-06
4.78245e-06
1.35817e-05
3.80877e-05
0.000105167
0.000284818
0.000753889
0.001943
0.00485867
0.0117601
0.0274967
0.0620133
0.134769
0.282011
0.567957
1.10041
2.05067
3.67436
6.32978
10.4792
16.6749
25.4911
37.4464
52.8681
71.6501
93.9102
115.919
153.687
3.03038e-12
1.10041e-11
3.1924e-11
9.51938e-11
2.84666e-10
8.51056e-10
2.54069e-09
7.56495e-09
2.24405e-08
6.62356e-08
1.9432e-07
5.66081e-07
1.6362e-06
4.68819e-06
1.33003e-05
3.72827e-05
0.000102974
0.000279191
0.000740347
0.00191265
0.00479721
0.0116499
0.0273333
0.0618534
0.134853
0.283005
0.571414
1.10945
2.07101
3.71549
6.40563
10.6098
16.883
25.8033
37.8832
53.442
72.3579
94.7276
116.804
154.53
3.02909e-12
1.09941e-11
3.18654e-11
9.49222e-11
2.83524e-10
8.46573e-10
2.52398e-09
7.50493e-09
2.22305e-08
6.55203e-08
1.9194e-07
5.58366e-07
1.61183e-06
4.61347e-06
1.30782e-05
3.66466e-05
0.000101221
0.000274608
0.000728912
0.00188569
0.00473809
0.0115292
0.0271065
0.0614701
0.134289
0.282362
0.571077
1.1105
2.07549
3.72754
6.43113
10.6586
16.9661
25.9324
38.0727
53.6983
72.6843
95.1127
117.23
154.944
1.24105e-12
4.57037e-12
1.32877e-11
3.97257e-11
1.19097e-10
3.56956e-10
1.06858e-09
3.19197e-09
9.50449e-09
2.81814e-08
8.31229e-08
2.4366e-07