/*--------------------------------*- C++ -*----------------------------------*\
| =========                 |                                                 |
| \\      /  F ield         | OpenFOAM: The Open Source CFD Toolbox           |
|  \\    /   O peration     | Version:  2412                                  |
|   \\  /    A nd           | Website:  www.openfoam.com                      |
|    \\/     M anipulation  |                                                 |
\*---------------------------------------------------------------------------*/
FoamFile
{
    version     2.0;
    format      ascii;
    arch        "LSB;label=32;scalar=64";
    class       volScalarField;
    location    "5";
    object      scr2;
}
// * * * * * * * * * * * * * * * * * * * * * * * * * * * * * * * * * * * * * //

dimensions      [0 1 -1 0 0 0 0];

internalField   nonuniform List<scalar> 
47360
(
6.25667e-08
2.244e-07
6.4867e-07
1.91664e-06
5.63943e-06
1.64661e-05
4.76474e-05
0.000136497
0.000386886
0.00108443
0.00300392
0.00820775
0.0220436
0.0578869
0.147718
0.363993
0.861275
1.9482
4.19923
8.60671
16.755
30.9699
54.3625
90.6901
143.935
217.685
314.266
434.195
575.548
734.568
905.699
1083.31
1261.68
1436.66
1604.4
1762.41
1908.3
2041.9
2150.2
2292.67
6.25206e-08
2.24313e-07
6.48982e-07
1.91948e-06
5.6544e-06
1.6531e-05
4.79021e-05
0.000137433
0.000390154
0.00109537
0.0030393
0.00831784
0.0223735
0.0588303
0.150285
0.370578
0.87717
1.98406
4.27498
8.75544
17.0292
31.4434
55.1303
91.859
145.636
220.025
317.394
438.169
580.527
740.546
912.775
1091.43
1270.86
1446.72
1615.24
1774
1920.25
2054.22
2162.62
2305.3
6.2584e-08
2.24632e-07
6.50411e-07
1.92566e-06
5.67939e-06
1.66268e-05
4.82542e-05
0.000138681
0.000394434
0.00110958
0.00308497
0.00845961
0.0227969
0.0600369
0.153549
0.378884
0.896983
2.02811
4.36616
8.9314
17.3455
31.9724
55.9705
93.1243
147.45
222.534
320.785
442.648
586.391
748.011
922.213
1102.91
1284.65
1462.57
1633.2
1793.75
1941.53
2076.79
2186.1
2329.86
6.25958e-08
2.24768e-07
6.51338e-07
1.93038e-06
5.70065e-06
1.67149e-05
4.85977e-05
0.000139962
0.000399021
0.00112545
0.0031379
0.00862966
0.0233199
0.0615653
0.157766
0.389775
0.923236
2.08683
4.48812
9.16612
17.7663
32.677
57.0785
94.7726
149.819
225.824
325.276
448.672
594.407
758.478
935.643
1119.59
1304.86
1486.2
1660.21
1823.61
1974.05
2111.44
2222.4
2368.11
6.25927e-08
2.24842e-07
6.52079e-07
1.93476e-06
5.72161e-06
1.68063e-05
4.89692e-05
0.000141402
0.000404351
0.0011445
0.00320336
0.00884617
0.0240027
0.0636085
0.163518
0.404914
0.96033
2.17106
4.66543
9.5122
18.3956
33.7463
58.7903
97.3671
153.582
231.084
332.451
458.249
606.989
774.662
956.068
1144.7
1335
1521.37
1700.33
1868.15
2022.66
2163.33
2276.98
2425.48
6.27217e-08
2.25373e-07
6.5412e-07
1.94292e-06
5.75393e-06
1.69333e-05
4.94584e-05
0.000143256
0.000411188
0.00116915
0.00328917
0.00913537
0.0249323
0.0664536
0.171703
0.426958
1.01553
2.29928
4.94176
10.0651
19.4261
35.5379
61.712
101.861
160.163
240.316
344.982
474.765
628.28
801.485
989.256
1184.92
1382.95
1577.23
1764.04
1938.94
2099.78
2245.17
2362.56
2513.73
6.2854e-08
2.25891e-07
6.56141e-07
1.95115e-06
5.78809e-06
1.70739e-05
5.00203e-05
0.000145432
0.000419429
0.00119957
0.00339827
0.00951464
0.0261931
0.0704519
0.183604
0.460094
1.10133
2.50574
5.40111
11.0052
21.2017
38.6429
66.8036
109.761
171.881
257.045
368.155
505.906
668.875
852.66
1051.6
1258.03
1465.42
1666.24
1856.19
2031.24
2191.22
2334.7
2450.84
2597.98
6.32131e-08
2.27126e-07
6.59716e-07
1.96216e-06
5.82563e-06
1.72102e-05
5.05598e-05
0.00014762
0.000428322
0.00123459
0.00353273
0.0100095
0.0279344
0.0762532
0.201648
0.512649
1.24387
2.85944
6.19107
12.6079
24.2201
44.0264
76.1043
125.349
197.044
295.675
423.708
580.135
760.812
957.935
1162.94
1366.21
1560.59
1742.64
1914.54
2074.06
2221.6
2354.26
2462.92
2602.18
6.2791e-08
2.25532e-07
6.55379e-07
1.95179e-06
5.80771e-06
1.72199e-05
5.08397e-05
0.000149474
0.00043766
0.00127679
0.00370849
0.0107
0.030499
0.0851835
0.230777
0.602542
1.49272
3.46242
7.52362
15.4644
30.3725
57.2988
103.438
176.42
281.595
419.275
584.171
765.751
952.981
1135.91
1306.66
1463.64
1612.97
1754.65
1889.04
2014.66
2133.24
2242
2334.25
2458.14
6.17004e-08
2.21843e-07
6.4614e-07
1.93125e-06
5.7716e-06
1.72092e-05
5.11836e-05
0.000152001
0.00045056
0.00133658
0.00395843
0.0117234
0.0344181
0.0994438
0.281076
0.761207
1.91389
4.55051
10.6353
25.4277
59.5205
125.99
232.03
374.269
539.007
709.832
874.576
1023.49
1153.09
1266.6
1373.41
1474.67
1568.59
1655.51
1738.92
1819.78
1900.63
1979.65
2056.78
2165.8
6.16546e-08
2.21884e-07
6.46824e-07
1.93582e-06
5.80137e-06
1.73704e-05
5.20332e-05
0.000155945
0.000468816
0.0014174
0.00430495
0.0132232
0.0403975
0.123343
0.373123
1.0322
2.81673
9.24732
33.9356
101.511
225.954
390.114
562.943
722.347
853.452
957.089
1038.91
1111.3
1176.92
1233.07
1277.15
1313.34
1347.64
1384.34
1427.2
1482.72
1543.24
1606.99
1669.39
1758.89
6.22934e-08
2.24197e-07
6.53395e-07
1.95548e-06
5.87065e-06
1.76265e-05
5.32065e-05
0.000160871
0.000492924
0.00152174
0.00479797
0.0154248
0.049849
0.167493
0.54187
1.68653
10.5621
60.5188
195.865
395.622
589.146
730.602
823.529
877.098
914.631
943.798
967.224
977.842
978.211
975.745
976.184
983.595
1008.01
1041.1
1082.68
1134.77
1189.16
1243.98
1292.4
1374.21
6.26097e-08
2.25399e-07
6.56759e-07
1.96829e-06
5.92194e-06
1.78819e-05
5.44561e-05
0.000166843
0.000522905
0.00165552
0.00548485
0.0185756
0.065622
0.255903
0.902281
8.34513
94.644
318.766
577.873
725.307
766.478
777.058
775.228
753.581
726.162
705.072
692.653
687.885
688.387
697.287
716.445
739.412
773.849
811.45
852.875
897.342
945.435
997.586
1046.19
1137.55
6.36394e-08
2.29166e-07
6.66688e-07
2.00207e-06
6.02059e-06
1.83141e-05
5.60129e-05
0.000174479
0.000555577
0.00181738
0.00635035
0.0230145
0.0941133
0.447133
2.03984
84.6965
435.302
700.323
754.858
688.404
613.89
540.425
482.31
455.846
448.928
458.227
477.907
500.02
530.916
564.869
600.876
633.719
667.813
706.5
752.603
805.381
861.825
921.981
973.72
1063.99
6.48751e-08
2.32941e-07
6.76828e-07
2.02506e-06
6.09242e-06
1.85294e-05
5.68736e-05
0.00017946
0.00058114
0.0019848
0.0073675
0.0293523
0.149033
0.840019
5.30234
462.782
786.938
688.997
478.37
326.956
258.596
244.178
250.981
273.711
371.797
519.247
616.651
667.296
696.299
717.218
723.579
715.49
704.627
720.906
747.318
787.571
836.102
893.133
939.94
1022.13
6.2496e-08
2.2419e-07
6.52335e-07
1.95349e-06
5.9085e-06
1.80623e-05
5.62249e-05
0.000180172
0.000600507
0.00215919
0.00850485
0.038848
0.23544
1.50191
11.5007
1084.76
532.892
168.069
35.5802
38.7989
98.7538
203.617
335.455
423.345
746.562
947.592
776.738
609.054
546.222
544.063
566.012
595.27
625.412
659.932
699.625
745.937
791.243
849.798
889.883
960.44
6.06884e-08
2.17946e-07
6.3481e-07
1.90701e-06
5.78799e-06
1.78118e-05
5.60157e-05
0.000182394
0.000624254
0.00233507
0.00975434
0.0504817
0.331499
2.31612
16.2008
1169.85
755.926
977.763
654.08
551.679
504.194
487.019
484.034
507.121
541.391
582.018
624.86
673.797
715.274
768.199
793.067
858.76
6.08026e-08
2.18331e-07
6.35364e-07
1.90575e-06
5.78403e-06
1.78291e-05
5.63488e-05
0.000185047
0.000644776
0.0024765
0.0109193
0.0601456
0.419989
2.86141
17.2064
1059.19
933.606
1111.5
846.989
749.141
676.757
639.415
601.568
565.598
531.278
510.275
527.391
575.517
613.851
667.56
687.702
763.263
6.05047e-08
2.1739e-07
6.31989e-07
1.89442e-06
5.74819e-06
1.77434e-05
5.62269e-05
0.00018587
0.00065382
0.00256218
0.0115672
0.0666153
0.467297
3.04143
17.545
935.609
921.061
1073.4
846.898
767.041
704.648
674.591
644.22
613.623
578.961
541.57
500.935
501.229
534.831
593.246
606.35
691.234
6.16427e-08
2.21096e-07
6.41081e-07
1.9166e-06
5.80032e-06
1.78504e-05
5.64281e-05
0.000186026
0.000654258
0.0025609
0.0116109
0.0664584
0.450201
2.82569
15.2983
765.348
883.784
1001.47
822.392
758.875
710.316
682.236
653.668
622.859
586.649
548.79
507.599
479.592
485.859
547.91
558.675
650.365
6.16519e-08
2.21128e-07
6.41174e-07
1.91687e-06
5.80112e-06
1.78527e-05
5.64352e-05
0.000186047
0.000654329
0.00256113
0.0116118
0.0664616
0.450201
2.82564
15.298
765.34
883.787
1001.48
822.407
758.888
710.324
682.24
653.669
622.859
586.648
548.786
507.594
479.58
485.842
547.892
558.656
650.345
6.05106e-08
2.17412e-07
6.32081e-07
1.89471e-06
5.74899e-06
1.7746e-05
5.62353e-05
0.000185898
0.000653922
0.00256255
0.0115678
0.0666126
0.467229
3.04071
17.5434
935.595
921.085
1073.46
846.97
767.108
704.699
674.631
644.25
613.643
578.975
541.578
500.938
501.206
534.786
593.196
606.296
691.179
6.07901e-08
2.18289e-07
6.3523e-07
1.90538e-06
5.78323e-06
1.78272e-05
5.63452e-05
0.000185044
0.000644798
0.0024767
0.0109203
0.0601407
0.419943
2.85978
17.2029
1059.17
933.679
1111.66
847.149
749.286
676.876
639.518
601.653
565.665
531.33
510.284
527.361
575.473
613.804
667.508
687.64
763.194
6.06873e-08
2.17945e-07
6.34808e-07
1.90691e-06
5.78824e-06
1.78135e-05
5.60165e-05
0.000182398
0.000624311
0.00233526
0.00975518
0.0504796
0.331415
2.31472
16.198
1169.83
756.055
977.935
654.266
551.861
504.366
487.188
484.152
507.193
541.454
582.076
624.908
673.835
715.287
768.167
793.017
858.697
6.24899e-08
2.2417e-07
6.52305e-07
1.95338e-06
5.90809e-06
1.80619e-05
5.62241e-05
0.000180184
0.00060056
0.00215959
0.00850581
0.0388487
0.235428
1.50005
11.4962
1084.72
532.878
168.06
35.5782
38.7996
98.7572
203.661
335.562
423.448
746.775
947.705
776.771
609.066
546.269
544.163
566.133
595.404
625.556
660.083
699.776
746.082
791.373
849.921
889.975
960.459
6.48684e-08
2.3292e-07
6.76765e-07
2.02499e-06
6.09182e-06
1.85282e-05
5.68806e-05
0.000179478
0.000581195
0.00198497
0.00736859
0.0293502
0.149092
0.83843
5.30002
462.751
786.916
688.987
478.374
326.975
258.632
244.214
251.02
273.783
372.002
519.607
617.091
667.628
696.604
717.479
723.812
715.724
704.867
721.155
747.57
787.82
836.346
893.373
940.167
1022.31
6.37913e-08
2.29712e-07
6.68253e-07
2.0066e-06
6.03344e-06
1.83489e-05
5.6103e-05
0.000174721
0.000556239
0.00181902
0.0063547
0.0230205
0.0941804
0.446272
2.03828
84.6466
435.241
700.251
754.869
688.425
613.908
540.506
482.425
455.963
449.053
458.385
478.109
500.252
531.172
565.149
601.174
634.037
668.155
706.861
752.974
805.75
862.191
922.357
974.117
1064.39
6.27337e-08
2.25857e-07
6.58128e-07
1.97265e-06
5.93581e-06
1.79267e-05
5.45984e-05
0.000167288
0.000524263
0.00165955
0.00549613
0.0186037
0.0657191
0.25579
0.901589
8.3379
94.6058
318.612
577.676
725.242
766.441
777.085
775.294
753.66
726.32
705.253
692.873
688.148
688.678
697.599
716.776
739.769
774.243
811.873
853.317
897.796
945.903
998.085
1046.73
1138.16
6.21445e-08
2.2367e-07
6.5191e-07
1.95127e-06
5.85917e-06
1.75964e-05
5.31348e-05
0.000160728
0.000492748
0.00152211
0.00480131
0.0154395
0.0499094
0.167579
0.542074
1.68577
10.5559
60.4791
195.74
395.405
588.877
730.338
823.398
877.055
914.639
943.826
967.199
977.874
978.364
975.985
976.476
983.915
1008.36
1041.49
1083.12
1135.28
1189.75
1244.66
1293.15
1375.1
6.16184e-08
2.21759e-07
6.46441e-07
1.93442e-06
5.7965e-06
1.73537e-05
5.19753e-05
0.000155758
0.000468234
0.0014158
0.00430102
0.0132149
0.0403887
0.123317
0.373091
1.03229
2.81596
9.24088
33.9065
101.434
225.804
389.875
562.625
721.998
853.116
956.809
1038.69
1111.06
1176.64
1232.75
1276.85
1313.07
1347.4
1384.15
1427.07
1482.66
1543.26
1607.11
1669.61
1759.45
6.17622e-08
2.22062e-07
6.46744e-07
1.9331e-06
5.77783e-06
1.72272e-05
5.12274e-05
0.000152108
0.00045078
0.00133689
0.00395835
0.0117203
0.0344046
0.0993966
0.280896
0.76075
1.91307
4.548
10.6275
25.4055
59.4634
125.868
231.813
373.953
538.596
709.343
874.024
1022.91
1152.54
1266.08
1372.78
1473.9
1567.72
1654.58
1737.94
1818.78
1899.63
1978.69
2055.86
2165.18
6.28388e-08
2.25711e-07
6.5596e-07
1.95348e-06
5.81238e-06
1.72358e-05
5.08916e-05
0.000149638
0.000438175
0.00127831
0.00371262
0.0107099
0.0305186
0.0852144
0.23079
0.602375
1.49198
3.46063
7.51957
15.455
30.3514
57.2545
103.351
176.268
281.356
418.936
583.733
765.227
952.369
1135.21
1305.94
1462.91
1612.14
1753.68
1887.96
2013.47
2131.97
2240.68
2332.89
2456.91
6.31251e-08
2.26813e-07
6.5881e-07
1.95965e-06
5.81853e-06
1.71914e-05
5.05145e-05
0.000147512
0.000428078
0.00123412
0.00353205
0.0100091
0.0279357
0.0762571
0.201647
0.512587
1.24351
2.85812
6.18769
12.6007
24.2063
44.0012
76.0605
125.279
196.936
295.522
423.504
579.876
760.502
957.58
1162.53
1365.74
1560.08
1742.11
1913.96
2073.41
2220.87
2353.46
2462.08
2601.34
6.28292e-08
2.25805e-07
6.55888e-07
1.95039e-06
5.78563e-06
1.70647e-05
4.9989e-05
0.000145334
0.000419136
0.00119871
0.00339588
0.00950831
0.026177
0.0704119
0.183506
0.459857
1.10076
2.50435
5.39788
10.9983
21.1884
38.6197
66.7665
109.706
171.805
256.948
368.04
505.783
668.754
852.553
1051.52
1257.97
1465.38
1666.19
1856.12
2031.12
2191.06
2334.5
2450.6
2597.7
6.2713e-08
2.25344e-07
6.54044e-07
1.94272e-06
5.7534e-06
1.69316e-05
4.94525e-05
0.000143235
0.000411113
0.00116888
0.00328826
0.00913238
0.024923
0.0664257
0.171624
0.426747
1.015
2.29803
4.93901
10.0594
19.4151
35.5183
61.6801
101.813
160.097
240.234
344.89
474.672
628.2
801.434
989.248
1184.97
1383.05
1577.4
1764.26
1939.2
2100.05
2245.44
2362.83
2513.96
6.25995e-08
2.24871e-07
6.52176e-07
1.93503e-06
5.72245e-06
1.68089e-05
4.89769e-05
0.000141425
0.000404416
0.00114467
0.00320372
0.00884667
0.0240023
0.0636024
0.163489
0.404811
0.960023
2.17025
4.66352
9.50809
18.3875
33.7318
58.7659
97.3302
153.529
231.017
332.373
458.17
606.917
774.611
956.05
1144.72
1335.07
1521.48
1700.49
1868.35
2022.89
2163.58
2277.25
2425.75
6.25912e-08
2.24751e-07
6.51292e-07
1.93028e-06
5.70035e-06
1.67141e-05
4.85959e-05
0.000139959
0.00039902
0.00112546
0.00313796
0.00862974
0.0233195
0.0615616
0.157748
0.38971
0.923036
2.08628
4.48679
9.16321
17.7606
32.6653
57.0594
94.7477
149.781
225.775
325.217
448.603
594.341
758.431
935.616
1119.59
1304.89
1486.26
1660.3
1823.73
1974.19
2111.6
2222.58
2368.29
6.25815e-08
2.24625e-07
6.50403e-07
1.92561e-06
5.67927e-06
1.66264e-05
4.82532e-05
0.000138678
0.000394426
0.00110956
0.00308491
0.00845939
0.022796
0.0600332
0.153535
0.378837
0.896843
2.02773
4.36531
8.92911
17.3407
31.9666
55.9597
93.1036
147.422
222.497
320.742
442.606
586.347
747.965
922.187
1102.9
1284.67
1462.61
1633.26
1793.82
1941.62
2076.89
2186.21
2329.98
6.2521e-08
2.24315e-07
6.48988e-07
1.9195e-06
5.65442e-06
1.65312e-05
4.79036e-05
0.000137435
0.000390161
0.00109539
0.00303933
0.00831785
0.0223733
0.0588289
0.150279
0.370556
0.8771
1.98387
4.27442
8.75461
17.0277
31.4387
55.1231
91.8486
145.621
220.005
317.37
438.143
580.505
740.53
912.761
1091.43
1270.87
1446.74
1615.28
1774.05
1920.3
2054.28
2162.7
2305.38
6.25641e-08
2.24391e-07
6.48645e-07
1.91657e-06
5.63925e-06
1.64654e-05
4.76448e-05
0.000136491
0.000386868
0.00108438
0.00300378
0.00820736
0.0220425
0.0578842
0.147711
0.363978
0.861244
1.94814
4.19911
8.60652
16.7546
30.969
54.361
90.6876
143.931
217.679
314.258
434.186
575.538
734.561
905.698
1083.31
1261.69
1436.68
1604.43
1762.45
1908.34
2041.94
2150.25
2292.72
3.30061e-13
1.0924e-12
3.17436e-12
9.48418e-12
2.8416e-11
8.51243e-11
2.54733e-10
7.6093e-10
2.26731e-09
6.73375e-09
1.99176e-08
5.86282e-08
1.71624e-07
4.99342e-07
1.44301e-06
4.13728e-06
1.17472e-05
3.2938e-05
9.08843e-05
0.000245764
0.000648723
0.00166517
0.00414339
0.00996794
0.0231405
0.0517592
0.111433
0.230732
0.459252
0.878387
1.61399
2.84855
4.82833
7.86031
12.2876
18.4575
26.5849
37.0849
48.286
70.4499
3.30136e-13
1.09292e-12
3.17725e-12
9.49728e-12
2.84709e-11
8.53453e-11
2.55591e-10
7.64156e-10
2.27911e-09
6.77571e-09
2.00626e-08
5.91155e-08
1.73216e-07
5.04392e-07
1.45857e-06
4.18348e-06
1.18807e-05
3.33004e-05
9.18436e-05
0.000248167
0.000654252
0.00167705
0.00416671
0.0100085
0.0231987
0.0518117
0.111393
0.230358
0.458026
0.875221
1.60705
2.83467
4.80325
7.81756
12.2204
18.3591
26.4475
36.9055
48.069
70.2256
3.30293e-13
1.09361e-12
3.18022e-12
9.51095e-12
2.85308e-11
8.55941e-11
2.56581e-10
7.67959e-10
2.29326e-09
6.82674e-09
2.02412e-08
5.97225e-08
1.75215e-07
5.10767e-07
1.47818e-06
4.24165e-06
1.20441e-05
3.37484e-05
9.29403e-05
0.000250716
0.000659661
0.00168695
0.00418058
0.0100156
0.0231563
0.0515951
0.110692
0.22849
0.453633
0.865803
1.58849
2.80045
4.7446
7.7224
12.0761
18.1526
26.1692
36.5512
47.6619
69.797
3.30369e-13
1.09402e-12
3.18261e-12
9.52344e-12
2.85895e-11
8.58517e-11
2.57651e-10
7.72215e-10
2.30954e-09
6.88694e-09
2.04565e-08
6.04681e-08
1.77709e-07
5.18826e-07
1.5032e-06
4.31619e-06
1.22544e-05
3.43096e-05
9.43181e-05
0.000253824
0.000665911
0.00169671
0.00418879
0.00999683
0.0230274
0.0511326
0.109368
0.225177
0.446137
0.850184
1.55825
2.74567
4.65149
7.57336
11.8517
17.8331
25.7416
36.0094
47.0584
69.1555
3.30579e-13
1.09487e-12
3.18617e-12
9.539e-12
2.86573e-11
8.61403e-11
2.58853e-10
7.77073e-10
2.32858e-09
6.95902e-09
2.07202e-08
6.14e-08
1.80888e-07
5.29262e-07
1.53614e-06
4.4153e-06
1.25385e-05
3.50623e-05
9.62295e-05
0.00025798
0.000673978
0.00170967
0.0041984
0.00996725
0.0228429
0.0504862
0.107539
0.220638
0.435923
0.828997
1.51738
2.67183
4.52631
7.37341
11.5509
17.4057
25.1701
35.3072
46.2731
68.3151
3.32196e-13
1.10029e-12
3.20221e-12
9.58606e-12
2.87972e-11
8.65865e-11
2.60425e-10
7.82978e-10
2.35142e-09
7.04641e-09
2.10472e-08
6.25818e-08
1.85013e-07
5.43088e-07
1.58062e-06
4.55175e-06
1.29341e-05
3.61421e-05
9.89119e-05
0.000264288
0.00068628
0.00173006
0.00422152
0.00995101
0.022651
0.0497474
0.105373
0.215166
0.423484
0.803032
1.46707
2.58069
4.3714
7.12557
11.1776
16.8752
24.4704
34.4815
45.3372
67.3284
3.33353e-13
1.10415e-12
3.21449e-12
9.6284e-12
2.89502e-11
8.71469e-11
2.62507e-10
7.90795e-10
2.38113e-09
7.15901e-09
2.147e-08
6.41291e-08
1.90516e-07
5.61912e-07
1.64256e-06
4.74529e-06
1.35086e-05
3.7735e-05
0.000103032
0.000273908
0.000707174
0.00176706
0.00427417
0.009986
0.022525
0.0490534
0.10311
0.209168
0.409518
0.773492
1.40941
2.47586
4.19301
6.84035
10.7489
16.2676
23.7136
33.5766
44.3126
66.2626
3.33518e-13
1.10402e-12
3.21472e-12
9.64271e-12
2.90545e-11
8.76863e-11
2.64884e-10
8.005e-10
2.41926e-09
7.30588e-09
2.20256e-08
6.6193e-08
1.97979e-07
5.88053e-07
1.73043e-06
5.02693e-06
1.437e-05
4.0186e-05
0.000109458
0.000289332
0.000740373
0.0018317
0.00437798
0.0101144
0.0225534
0.0485742
0.101077
0.203261
0.395094
0.742126
1.34726
2.36222
3.99972
6.53291
10.2903
15.6492
22.953
32.6552
43.2917
65.2499
3.33754e-13
1.10425e-12
3.21719e-12
9.65942e-12
2.91467e-11
8.81546e-11
2.6715e-10
8.10684e-10
2.46291e-09
7.48487e-09
2.27325e-08
6.89226e-08
2.08127e-07
6.24779e-07
1.85746e-06
5.45713e-06
1.57123e-05
4.39e-05
0.000118847
0.000311268
0.00078794
0.00192566
0.00454574
0.0103487
0.0227672
0.0484359
0.0997505
0.198963
0.384514
0.719425
1.30281
2.28169
3.86236
6.31218
9.96443
15.2454
22.4482
32.0602
42.6576
64.6751
3.33394e-13
1.10379e-12
3.21941e-12
9.67181e-12
2.92176e-11
8.85217e-11
2.69193e-10
8.2063e-10
2.51038e-09
7.69154e-09
2.36058e-08
7.24686e-08
2.21877e-07
6.76619e-07
2.05074e-06
6.13614e-06
1.76475e-05
4.92815e-05
0.000133445
0.000350116
0.000890614
0.00219018
0.00515841
0.0115934
0.0249379
0.0516751
0.103937
0.203674
0.389176
0.723673
1.30666
2.28601
3.8695
6.33594
10.0629
15.4471
22.7729
32.5334
43.2885
65.4771
3.33092e-13
1.10331e-12
3.21894e-12
9.67404e-12
2.92705e-11
8.8876e-11
2.71434e-10
8.31659e-10
2.56597e-09
7.93693e-09
2.47094e-08
7.70885e-08
2.40731e-07
7.52813e-07
2.35616e-06
7.02585e-06
2.05043e-05
7.73666e-05
0.00049447
0.00278425
0.0107046
0.02977
0.0648525
0.117729
0.185172
0.262108
0.352656
0.479768
0.689385
1.05806
1.70191
2.78758
4.56089
7.32934
11.4735
17.3336
25.1825
35.4498
46.5871
68.8672
3.32772e-13
1.1023e-12
3.2162e-12
9.6726e-12
2.93215e-11
8.92787e-11
2.73969e-10
8.44489e-10
2.6318e-09
8.23373e-09
2.61154e-08
8.31459e-08
2.66646e-07
8.78663e-07
2.68426e-06
8.91099e-06
0.000428824
0.00880569
0.0580698
0.200954
0.471666
0.862813
1.33038
1.81044
2.21839
2.48864
2.62632
2.721
2.87567
3.21844
3.93489
5.27773
7.53301
11.0206
16.059
22.9306
31.7816
42.8676
54.4252
76.0856
3.31556e-13
1.09859e-12
3.2071e-12
9.65999e-12
2.93507e-11
8.96781e-11
2.76569e-10
8.58746e-10
2.70566e-09
8.58708e-09
2.7862e-08
9.09122e-08
3.0527e-07
1.05351e-06
3.0453e-06
0.00120026
0.0612686
0.445559
1.33884
2.55905
3.86247
5.07463
6.0722
6.81339
7.22745
7.36282
7.36771
7.38446
7.54664
8.08403
9.19041
11.207
14.3887
19.0159
25.3158
33.4062
43.1969
54.7317
66.0736
85.4497
3.3139e-13
1.09809e-12
3.20496e-12
9.65777e-12
2.93752e-11
9.00122e-11
2.78907e-10
8.73251e-10
2.78422e-09
8.99182e-09
2.99627e-08
1.0088e-07
3.60909e-07
1.29319e-06
4.39528e-06
0.133142
1.44003
3.94976
6.16731
7.66221
8.67119
9.34029
9.74019
9.95827
10.088
10.3302
10.7689
11.4641
12.5172
14.2192
16.6746
20.1354
24.8288
30.9143
38.4348
47.3193
57.2139
68.0568
77.909
93.169
3.31955e-13
1.09916e-12
3.20587e-12
9.6582e-12
2.93941e-11
9.0324e-11
2.81146e-10
8.87972e-10
2.86615e-09
9.43442e-09
3.24119e-08
1.13038e-07
4.42837e-07
1.60792e-06
9.30384e-06
2.76199
6.89881
8.2724
8.55173
8.69336
8.81126
8.99121
9.38462
9.87299
10.668
12.3216
14.579
17.4505
20.6674
24.0884
27.9012
32.414
37.8761
44.4311
51.9829
60.3499
68.963
77.882
85.344
96.0065
1.94905e-13
1.03356e-12
3.21467e-12
9.66777e-12
2.93855e-11
9.05381e-11
2.83027e-10
9.01846e-10
2.94231e-09
9.908e-09
3.48751e-08
1.28475e-07
5.37047e-07
2.19879e-06
2.5979e-05
13.6656
7.93997
5.89062
5.6884
6.13431
6.3959
7.20168
9.59646
14.7191
21.1252
28.1042
31.7053
32.9593
34.9038
37.1949
40.1814
44.1228
49.1306
55.0769
61.6279
68.5718
75.1957
81.988
87.2246
94.5309
1.84579e-13
1.00709e-12
3.1827e-12
9.637e-12
2.93589e-11
9.06242e-11
2.84454e-10
9.12433e-10
3.01011e-09
1.03247e-08
3.72016e-08
1.44697e-07
6.29858e-07
3.08985e-06
5.07562e-05
20.3091
10.1565
55.5251
71.2199
69.7317
69.8404
70.1867
68.7884
65.8321
63.3414
64.6726
67.4992
71.3458
75.7137
81.0263
85.0568
90.8406
3.2971e-13
1.09099e-12
3.18224e-12
9.59497e-12
2.92854e-11
9.05448e-11
2.85093e-10
9.18708e-10
3.05855e-09
1.06165e-08
3.91455e-08
1.56653e-07
7.1373e-07
3.7761e-06
6.5833e-05
20.0502
39.9602
105.044
100.113
91.7445
80.1012
69.2651
61.4066
57.9326
58.3462
61.2408
64.6676
68.8802
73.0797
78.2793
81.7843
86.9764
3.28995e-13
1.08928e-12
3.17605e-12
9.5723e-12
2.9205e-11
9.03406e-11
2.84739e-10
9.20298e-10
3.07694e-09
1.07694e-08
4.01772e-08
1.63771e-07
7.68376e-07
4.26698e-06
7.83738e-05
20.0274
47.9899
104.658
98.4151
86.3984
71.7438
60.4614
53.7143
51.6182
52.8919
56.7375
61.0669
65.8486
70.1093
75.5022
78.7369
83.6223
3.28473e-13
1.08764e-12
3.17052e-12
9.54922e-12
2.91079e-11
8.99612e-11
2.83415e-10
9.15835e-10
3.06404e-09
1.07347e-08
4.01569e-08
1.64051e-07
7.73012e-07
4.31982e-06
7.88624e-05
18.463
50.3277
101.874
94.7449
80.0664
64.0847
54.8866
52.2484
51.7795
51.659
54.1149
58.6618
63.5429
67.7837
73.2368
76.3687
81.1677
3.28466e-13
1.08762e-12
3.17045e-12
9.54899e-12
2.91072e-11
8.99589e-11
2.83407e-10
9.15812e-10
3.06396e-09
1.07345e-08
4.01561e-08
1.64047e-07
7.73004e-07
4.31978e-06
7.88616e-05
18.463
50.3298
101.878
94.7487
80.0698
64.0873
54.8879
52.249
51.7799
51.659
54.1145
58.6612
63.5423
67.7832
73.2363
76.3683
81.1674
3.28994e-13
1.08928e-12
3.17605e-12
9.5723e-12
2.92059e-11
9.03442e-11
2.84754e-10
9.20352e-10
3.07719e-09
1.07703e-08
4.0182e-08
1.63781e-07
7.68516e-07
4.26313e-06
7.83937e-05
20.0279
47.9954
104.671
98.428
86.4108
71.7539
60.468
53.7182
51.6193
52.8915
56.7369
61.0662
65.8477
70.1085
75.5015
78.7361
83.6212
3.29492e-13
1.09076e-12
3.18203e-12
9.59467e-12
2.92855e-11
9.05471e-11
2.8511e-10
9.18784e-10
3.05897e-09
1.06181e-08
3.91563e-08
1.56685e-07
7.14287e-07
3.76976e-06
6.58615e-05
20.0515
39.9677
105.066
100.134
91.7635
80.1168
69.2746
61.4101
57.934
58.3454
61.2398
64.6663
68.8787
73.0782
78.2778
81.7825
86.9741
3.3009e-13
1.09268e-12
3.18849e-12
9.61742e-12
2.93406e-11
9.06162e-11
2.84484e-10
9.12554e-10
3.01072e-09
1.03269e-08
3.72146e-08
1.44732e-07
6.30478e-07
3.08423e-06
5.07851e-05
20.309
10.1578
55.5325
71.2283
69.7377
69.8444
70.1898
68.7908
65.833
63.3414
64.6707
67.4972
71.3439
75.7116
81.0241
85.0544
90.8377
3.30683e-13
1.09442e-12
3.19314e-12
9.63175e-12
2.93621e-11
9.05282e-11
2.8304e-10
9.01981e-10
2.94284e-09
9.91109e-09
3.48889e-08
1.28495e-07
5.38472e-07
2.19133e-06
2.60089e-05
13.6663
7.9401
5.89129
5.68946
6.13583
6.39691
7.202
9.59618
14.7181
21.1238
28.1025
31.7027
32.9558
34.8998
37.191
40.1778
44.1198
49.1281
55.0749
61.6261
68.5699
75.1933
81.9854
87.2215
94.5274
3.31983e-13
1.09912e-12
3.20554e-12
9.6575e-12
2.9395e-11
9.03233e-11
2.81152e-10
8.88031e-10
2.86674e-09
9.43611e-09
3.24315e-08
1.1301e-07
4.44529e-07
1.60273e-06
9.30937e-06
2.7628
6.897
8.2727
8.55267
8.69502
8.8124
8.99138
9.38389
9.87173
10.6667
12.3205
14.578
17.4493
20.6659
24.0866
27.8993
32.4123
37.8747
44.4301
51.9821
60.3489
68.9613
77.8801
85.3412
96.0029
3.31385e-13
1.0981e-12
3.20506e-12
9.65789e-12
2.93778e-11
9.00225e-11
2.78961e-10
8.73378e-10
2.78501e-09
8.99327e-09
2.99823e-08
1.0086e-07
3.61803e-07
1.29193e-06
4.39562e-06
0.133166
1.43954
3.94904
6.16738
7.66328
8.6731
9.34192
9.74074
9.95764
10.0864
10.3278
10.7661
11.461
12.514
14.2161
16.6718
20.133
24.8269
30.9129
38.4337
47.3184
57.2127
68.0561
77.9074
93.1667
3.31546e-13
1.09855e-12
3.2072e-12
9.66092e-12
2.93524e-11
8.96899e-11
2.7661e-10
8.58923e-10
2.70629e-09
8.58969e-09
2.78721e-08
9.09499e-08
3.05516e-07
1.055e-06
3.04163e-06
0.0012017
0.0612612
0.44555
1.33883
2.55955
3.86405
5.07735
6.07567
6.81692
7.23039
7.36495
7.36938
7.38578
7.54765
8.0847
9.19062
11.2067
14.3878
19.0145
25.3139
33.4039
43.1939
54.7295
66.0707
85.4471
3.32764e-13
1.10225e-12
3.21613e-12
9.67304e-12
2.93236e-11
8.92853e-11
2.73998e-10
8.44614e-10
2.6323e-09
8.23595e-09
2.61232e-08
8.31857e-08
2.66744e-07
8.79044e-07
2.6889e-06
8.90366e-06
0.000428938
0.00881065
0.0581001
0.201078
0.472085
0.863793
1.33213
1.81297
2.22146
2.4918
2.62957
2.7241
2.87841
3.22067
3.93645
5.27848
7.5328
11.0193
16.0565
22.927
31.7765
42.8627
54.4192
76.0799
3.33077e-13
1.10327e-12
3.21883e-12
9.67364e-12
2.9272e-11
8.88813e-11
2.71461e-10
8.31759e-10
2.56641e-09
7.93864e-09
2.4716e-08
7.71126e-08
2.40891e-07
7.52669e-07
2.35833e-06
7.03297e-06
2.05144e-05
7.73897e-05
0.000494941
0.0027879
0.0107216
0.0298252
0.0649904
0.117996
0.185584
0.262628
0.353215
0.480283
0.68974
1.05815
1.70155
2.78661
4.55906
7.32644
11.4693
17.3281
25.1753
35.4423
46.5785
68.8591
3.33412e-13
1.10384e-12
3.2196e-12
9.67246e-12
2.92201e-11
8.85324e-11
2.69241e-10
8.20792e-10
2.51095e-09
7.6934e-09
2.36128e-08
7.24862e-08
2.21986e-07
6.76893e-07
2.05081e-06
6.13818e-06
1.76566e-05
4.92969e-05
0.000133468
0.000350129
0.000890603
0.00218994
0.00515752
0.0115917
0.0249319
0.0516579
0.103898
0.203552
0.389028
0.723443
1.30602
2.28492
3.86781
6.33345
10.0595
15.4427
22.7674
32.5278
43.2827
65.4718
3.33802e-13
1.10443e-12
3.21763e-12
9.66124e-12
2.91533e-11
8.81746e-11
2.67213e-10
8.10885e-10
2.46353e-09
7.48675e-09
2.27384e-08
6.89408e-08
2.08183e-07
6.25005e-07
1.85802e-06
5.45796e-06
1.57123e-05
4.39032e-05
0.000118855
0.000311288
0.000787911
0.00192518
0.00454451
0.0103468
0.022761
0.0484235
0.0997232
0.198936
0.384364
0.719132
1.30249
2.28113
3.86154
6.31103
9.96291
15.2435
22.446
32.0579
42.6551
64.6725
3.33509e-13
1.10403e-12
3.21477e-12
9.64255e-12
2.90547e-11
8.76886e-11
2.64895e-10
8.00549e-10
2.41946e-09
7.30669e-09
2.20288e-08
6.62046e-08
1.98018e-07
5.88177e-07
1.73084e-06
5.02806e-06
1.43724e-05
4.01875e-05
0.000109453
0.000289251
0.000740383
0.00183065
0.00437694
0.0101121
0.0225432
0.0485488
0.101023
0.203159
0.394914
0.741853
1.34684
2.36163
3.99893
6.53194
10.2892
15.6482
22.9522
32.655
43.2918
65.2503
3.33317e-13
1.10403e-12
3.21428e-12
9.62836e-12
2.89501e-11
8.71467e-11
2.62506e-10
7.90805e-10
2.38125e-09
7.15964e-09
2.14727e-08
6.4139e-08
1.9055e-07
5.62015e-07
1.64285e-06
4.74608e-06
1.35103e-05
3.77393e-05
0.000103025
0.000273968
0.000706706
0.00176706
0.00427359
0.00998337
0.0225201
0.0490418
0.103086
0.209122
0.409435
0.773353
1.4092
2.47555
4.1926
6.83984
10.7483
16.2671
23.7133
33.5768
44.3132
66.2637
3.32179e-13
1.10024e-12
3.20205e-12
9.58569e-12
2.87968e-11
8.65872e-11
2.60433e-10
7.83023e-10
2.35162e-09
7.04714e-09
2.10497e-08
6.25899e-08
1.85038e-07
5.43164e-07
1.58084e-06
4.55225e-06
1.29355e-05
3.6141e-05
9.89348e-05
0.000264149
0.000686354
0.00173012
0.00422034
0.00994865
0.0226449
0.0497342
0.105346
0.215114
0.423391
0.802877
1.46683
2.58033
4.37092
7.12497
11.1769
16.8745
24.4699
34.4812
45.3372
67.3286
3.3058e-13
1.09488e-12
3.18618e-12
9.53909e-12
2.86578e-11
8.61433e-11
2.58868e-10
7.7713e-10
2.32878e-09
6.95965e-09
2.07222e-08
6.14063e-08
1.80907e-07
5.29317e-07
1.53627e-06
4.4157e-06
1.25385e-05
3.50682e-05
9.61927e-05
0.000258014
0.000674023
0.00170929
0.00419768
0.00996526
0.0228381
0.0504751
0.107515
0.22059
0.435836
0.828847
1.51714
2.67148
4.52581
7.37277
11.5501
17.4048
25.1691
35.3062
46.2723
68.3145
3.30363e-13
1.09401e-12
3.1826e-12
9.52349e-12
2.85901e-11
8.58543e-11
2.5766e-10
7.72247e-10
2.30965e-09
6.88732e-09
2.04578e-08
6.04721e-08
1.77722e-07
5.18861e-07
1.50331e-06
4.31638e-06
1.22549e-05
3.431e-05
9.43207e-05
0.0002538
0.000665771
0.00169643
0.00418799
0.00999476
0.0230226
0.0511223
0.109347
0.225138
0.446066
0.85006
1.55805
2.74536
4.65106
7.57278
11.8509
17.8322
25.7406
36.0083
47.0573
69.1544
3.30293e-13
1.09361e-12
3.18026e-12
9.51113e-12
2.85314e-11
8.5596e-11
2.56587e-10
7.67983e-10
2.29334e-09
6.82701e-09
2.02421e-08
5.97253e-08
1.75223e-07
5.10792e-07
1.47825e-06
4.24173e-06
1.20451e-05
3.37416e-05
9.29511e-05
0.000250749
0.000659635
0.00168677
0.00418002
0.0100142
0.023153
0.0515876
0.110676
0.228458
0.453574
0.865705
1.58834
2.80021
4.74426
7.72194
12.0755
18.152
26.1686
36.5507
47.6617
69.7972
3.30139e-13
1.09293e-12
3.17729e-12
9.49747e-12
2.84716e-11
8.53472e-11
2.55598e-10
7.64183e-10
2.2792e-09
6.77598e-09
2.00634e-08
5.91178e-08
1.73222e-07
5.0441e-07
1.4586e-06
4.18363e-06
1.18803e-05
3.33029e-05
9.18406e-05
0.000248131
0.000654203
0.00167694
0.00416643
0.0100077
0.0231969
0.0518076
0.111385
0.23034
0.457993
0.875163
1.60696
2.83453
4.80305
7.81729
12.22
18.3587
26.447
36.9048
48.0683
70.2245
3.30062e-13
1.0924e-12
3.17438e-12
9.48424e-12