/*--------------------------------*- C++ -*----------------------------------*\
| =========                 |                                                 |
| \\      /  F ield         | OpenFOAM: The Open Source CFD Toolbox           |
|  \\    /   O peration     | Version:  2412                                  |
|   \\  /    A nd           | Website:  www.openfoam.com                      |
|    \\/     M anipulation  |                                                 |
\*---------------------------------------------------------------------------*/
FoamFile
{
    version     2.0;
    format      ascii;
    arch        "LSB;label=32;scalar=64";
    class       volScalarField;
    location    "5";
    object      scr3;
}
// * * * * * * * * * * * * * * * * * * * * * * * * * * * * * * * * * * * * * //

dimensions      [0 1 -1 0 0 0 0];

internalField   nonuniform List<scalar> 
47360
(
1.93359e-08
6.73336e-08
1.95087e-07
5.79018e-07
1.71563e-06
5.0585e-06
1.48265e-05
4.31579e-05
0.000124676
0.00035727
0.00101506
0.00285562
0.00793201
0.0216493
0.0576981
0.149123
0.371346
0.886064
2.01727
4.36912
8.9857
17.5307
32.4373
56.9402
94.8934
150.327
226.704
326.167
448.693
592.077
751.743
922.157
1096.91
1270.92
1439.17
1598.59
1746.11
1882
1992.51
2139.91
1.93312e-08
6.73324e-08
1.95193e-07
5.79731e-07
1.71918e-06
5.07369e-06
1.48864e-05
4.3381e-05
0.000125472
0.000360003
0.00102415
0.00288487
0.00802296
0.0219207
0.0584718
0.151211
0.376657
0.898712
2.04544
4.42753
9.09916
17.7358
32.7846
57.4907
95.7225
151.5
228.313
328.249
451.363
595.319
755.682
926.69
1102.2
1276.66
1445.43
1605.33
1752.99
1889.09
1999.55
2146.98
1.93293e-08
6.73431e-08
1.95323e-07
5.80493e-07
1.72283e-06
5.08945e-06
1.49493e-05
4.36189e-05
0.000126336
0.000363024
0.00103438
0.00291837
0.00812871
0.02224
0.0593888
0.153692
0.382951
0.913576
2.0781
4.49413
9.22394
17.955
33.1468
58.0445
96.5245
152.612
229.812
330.226
453.971
598.693
760.078
932.201
1109.06
1284.77
1454.9
1615.9
1764.64
1901.6
2012.66
2160.85
1.93386e-08
6.73923e-08
1.95567e-07
5.81639e-07
1.72786e-06
5.11027e-06
1.50313e-05
4.39296e-05
0.000127471
0.000367042
0.00104814
0.00296388
0.00827347
0.0226797
0.0606552
0.15712
0.391627
0.933962
2.12251
4.58336
9.39085
18.2424
33.6047
58.7376
97.5253
153.979
231.645
332.652
457.214
602.999
765.801
939.611
1118.46
1296.24
1468.54
1631.41
1781.98
1920.41
2032.65
2182.21
1.9385e-08
6.75687e-08
1.96181e-07
5.83856e-07
1.73597e-06
5.14051e-06
1.51419e-05
4.4332e-05
0.000128909
0.000372092
0.00106544
0.00302161
0.00845945
0.023254
0.0623375
0.161752
0.403531
0.962339
2.1851
4.7108
9.63098
18.6616
34.2879
59.775
99.0154
156.045
234.438
336.368
462.145
609.51
774.362
950.63
1132.31
1313.01
1488.29
1653.81
1806.89
1947.28
2061.2
2212.63
1.93778e-08
6.7554e-08
1.96231e-07
5.84415e-07
1.7394e-06
5.15731e-06
1.52168e-05
4.46514e-05
0.000130202
0.000377115
0.00108414
0.00308862
0.0086882
0.0239958
0.0645976
0.168188
0.420547
1.00393
2.27894
4.90637
10.0086
19.3389
35.4226
61.5594
101.672
159.808
239.578
343.176
470.992
620.773
788.48
967.939
1153.14
1337.43
1516.34
1685.22
1841.58
1984.75
2101.23
2255.7
1.93478e-08
6.74568e-08
1.96053e-07
5.84368e-07
1.74105e-06
5.16928e-06
1.52843e-05
4.49758e-05
0.000131647
0.000383145
0.00110791
0.00317744
0.00900175
0.0250424
0.0678698
0.177739
0.446394
1.06869
2.42891
5.22766
10.6461
20.5114
37.4293
64.7655
106.487
166.654
248.876
355.334
486.409
639.753
811.276
994.598
1183.68
1371.66
1554.28
1726.76
1886.93
2033.25
2152.79
2309.92
1.945e-08
6.77923e-08
1.96973e-07
5.87066e-07
1.75027e-06
5.20405e-06
1.54226e-05
4.55321e-05
0.000133891
0.000391964
0.00114174
0.00330272
0.0094481
0.0265596
0.0727321
0.192324
0.487178
1.17451
2.68062
5.77551
11.7335
22.4965
40.7909
70.1116
114.51
178.089
264.373
375.249
510.767
668.095
842.844
1028.46
1218.98
1407.58
1590.22
1761.63
1920.23
2064.16
2181.9
2335.44
1.94318e-08
6.77063e-08
1.96813e-07
5.87182e-07
1.75341e-06
5.22547e-06
1.55401e-05
4.60979e-05
0.000136395
0.000402455
0.00118394
0.00346703
0.0100622
0.0287489
0.0800587
0.215424
0.554844
1.35272
3.09727
6.65409
13.454
25.6691
46.3687
79.4353
129.373
200.652
296.84
419.325
566.692
734.225
915.438
1101.91
1286.92
1463.85
1629.69
1782.05
1922.91
2050.56
2156.18
2302.27
1.91981e-08
6.69311e-08
1.94861e-07
5.82753e-07
1.74559e-06
5.2224e-06
1.56112e-05
4.66002e-05
0.000139024
0.000414726
0.001237
0.00368966
0.0109394
0.0320389
0.0917699
0.254354
0.667673
1.63441
3.76185
8.18124
16.997
33.9693
64.9202
116.992
196.447
305.86
443.334
602.66
773.918
946.962
1113.98
1268.13
1407.18
1533.21
1652
1763.9
1869.77
1973.43
2061.65
2184.39
1.90856e-08
6.65804e-08
1.93974e-07
5.80621e-07
1.74259e-06
5.22792e-06
1.57109e-05
4.72161e-05
0.000142444
0.000430906
0.00131058
0.00401
0.0122481
0.0372058
0.111901
0.317808
0.848165
2.17552
5.84711
16.9654
46.0195
104.964
200.431
330.749
484.259
645.924
803.098
947.053
1070.73
1174.08
1260.84
1338.87
1413.33
1484.35
1552.18
1622.3
1687.23
1752.65
1809.74
1883.45
1.92473e-08
6.71527e-08
1.95603e-07
5.85563e-07
1.75973e-06
5.29145e-06
1.59926e-05
4.83777e-05
0.000147927
0.000453959
0.00141716
0.00446699
0.0142095
0.0457611
0.145168
0.421307
1.46238
8.26883
40.1017
123.205
260.341
427.777
598.083
749.941
870.336
962.442
1027.93
1071.69
1107.89
1141.83
1172.09
1193.34
1211.45
1231.02
1253.77
1286.78
1321.89
1356.51
1386.11
1439.37
1.93713e-08
6.7606e-08
1.96865e-07
5.8985e-07
1.77455e-06
5.3556e-06
1.62757e-05
4.96714e-05
0.000154162
0.000481728
0.00155324
0.00508438
0.0170939
0.0607322
0.193437
1.08129
17.4656
103.838
291.966
512.097
684.28
799.172
866.738
891.188
902.82
913.108
917.408
908.03
887.571
867.995
858.768
851.634
853.56
864.236
881.597
905.966
939.252
983.467
1029.83
1122.63
1.95165e-08
6.81189e-08
1.98132e-07
5.94442e-07
1.78796e-06
5.42546e-06
1.65411e-05
5.11154e-05
0.000160597
0.000513944
0.00171638
0.005902
0.0214585
0.0869242
0.295324
23.6909
189.803
505.238
724.382
782.064
769.377
752.802
731.284
694.325
661.003
632.741
610.735
590.44
574.445
564.544
573.636
590.516
617.152
653.897
701.367
759.884
825.427
895.045
955.576
1058.31
1.97449e-08
6.8782e-08
1.99972e-07
5.98554e-07
1.80207e-06
5.47065e-06
1.67503e-05
5.22501e-05
0.000166327
0.000546775
0.00190595
0.00691513
0.0286402
0.128845
0.565513
282.212
648.026
807.797
699.384
576.519
490.369
427.246
382.234
362.666
371.772
403.224
437.201
462.037
508.848
564.099
606.552
634.261
658.962
686.941
722.497
768.528
824.203
891.087
949.035
1045.81
1.937e-08
6.7418e-08
1.96261e-07
5.87481e-07
1.77584e-06
5.40391e-06
1.67052e-05
5.25961e-05
0.000170702
0.000579084
0.00210466
0.00822434
0.0390283
0.190031
1.11623
1095.96
654.992
335.617
143.35
48.5147
45.378
83.4967
189.612
313.109
459.088
712.921
710.37
665.502
631.723
607.398
607.866
635.296
665.695
702.021
743.636
792.188
842.642
902.916
949.945
1031.36
1.90013e-08
6.6189e-08
1.92771e-07
5.78355e-07
1.75144e-06
5.35624e-06
1.66612e-05
5.30583e-05
0.000175037
0.000610915
0.00229708
0.00978718
0.0495654
0.269861
1.68031
1417.25
304.955
845.059
707.394
647.508
645.873
664.027
680.287
692.334
697.759
710.66
742.851
781.167
822.384
880.873
915.683
979.064
1.89494e-08
6.60203e-08
1.92162e-07
5.76202e-07
1.74462e-06
5.34471e-06
1.66763e-05
5.34791e-05
0.000178487
0.000635394
0.00247011
0.0110848
0.0587868
0.335697
1.91177
1314.62
483.342
1001.33
909.719
808.125
736.737
675.837
611.326
585.675
602.613
637.537
676.457
722.148
762.518
814.956
840.338
904.985
1.88875e-08
6.58454e-08
1.91535e-07
5.74092e-07
1.73789e-06
5.32983e-06
1.66583e-05
5.36776e-05
0.000180267
0.000650894
0.00257186
0.0119561
0.0648972
0.371055
2.06056
1223.19
513.82
1018.25
928.653
831.133
744.25
677.029
613.001
566.93
545.597
564.314
607.597
658.176
698.364
752.211
774.982
844.418
1.91295e-08
6.66245e-08
1.93455e-07
5.7893e-07
1.74957e-06
5.35565e-06
1.67133e-05
5.37743e-05
0.000180619
0.000652149
0.00258675
0.0120467
0.0644613
0.362772
1.92487
1051.06
513.889
992.657
915.17
823.193
732.756
660.191
605.897
572.9
544.282
537.42
564.906
616.064
655.7
711.223
732.107
804.91
1.91302e-08
6.66269e-08
1.93462e-07
5.78949e-07
1.74962e-06
5.3558e-06
1.67137e-05
5.37752e-05
0.000180622
0.000652154
0.00258675
0.0120466
0.0644593
0.362758
1.9248
1051.05
513.892
992.678
915.189
823.207
732.767
660.199
605.901
572.904
544.283
537.414
564.893
616.048
655.683
711.204
732.087
804.89
1.88866e-08
6.58429e-08
1.91535e-07
5.74091e-07
1.73785e-06
5.32971e-06
1.66579e-05
5.36765e-05
0.000180265
0.000650898
0.00257179
0.0119548
0.0648896
0.37087
2.06014
1223.17
513.831
1018.33
928.727
831.196
744.296
677.06
613.022
566.945
545.595
564.293
607.573
658.143
698.328
752.169
774.935
844.367
1.89474e-08
6.60126e-08
1.92137e-07
5.76152e-07
1.74451e-06
5.34453e-06
1.66762e-05
5.34801e-05
0.000178496
0.000635431
0.00247043
0.0110843
0.0587963
0.335367
1.91095
1314.59
483.377
1001.48
909.876
808.258
736.839
675.91
611.349
585.662
602.603
637.526
676.445
722.132
762.491
814.909
840.286
904.931
1.89978e-08
6.61789e-08
1.92739e-07
5.78239e-07
1.75131e-06
5.35584e-06
1.66592e-05
5.30541e-05
0.000175036
0.000610936
0.00229725
0.00978756
0.0495734
0.269571
1.67965
1417.22
305.03
845.236
707.518
647.609
645.965
664.122
680.381
692.422
697.837
710.73
742.922
781.23
822.438
880.902
915.694
979.057
1.9367e-08
6.74081e-08
1.96244e-07
5.87411e-07
1.77552e-06
5.40359e-06
1.67053e-05
5.25974e-05
0.000170709
0.000579161
0.002105
0.00822455
0.0390592
0.189694
1.1155
1095.92
654.976
335.583
143.364
48.5371
45.3948
83.462
189.543
313.087
459.152
713.101
710.529
665.624
631.822
607.5
607.997
635.444
665.857
702.191
743.804
792.344
842.779
903.036
950.054
1031.44
1.97202e-08
6.86963e-08
1.99725e-07
5.97848e-07
1.80004e-06
5.4646e-06
1.67346e-05
5.22083e-05
0.00016623
0.00054655
0.0019059
0.00691334
0.0286748
0.128582
0.565092
282.194
647.975
807.696
699.414
576.545
490.409
427.37
382.331
362.874
372.036
403.551
437.592
462.404
509.152
564.327
606.777
634.513
659.233
687.222
722.776
768.784
824.417
891.274
949.212
1045.97
1.95175e-08
6.81226e-08
1.98141e-07
5.94462e-07
1.7879e-06
5.4248e-06
1.65372e-05
5.11001e-05
0.000160549
0.000513792
0.00171618
0.00590038
0.0214778
0.0867905
0.295042
23.6845
189.762
505.015
724.272
782.047
769.38
752.776
731.324
694.402
661.134
632.93
610.977
590.727
574.793
564.965
574.083
590.984
617.63
654.376
701.829
760.313
825.853
895.479
956.008
1058.7
1.93944e-08
6.76884e-08
1.97102e-07
5.90575e-07
1.77671e-06
5.36215e-06
1.62943e-05
4.97234e-05
0.000154291
0.000482045
0.00155393
0.00508561
0.0171039
0.0606972
0.19335
1.08043
17.4594
103.809
291.856
511.957
684.147
799.029
866.7
891.24
902.891
913.195
917.481
908.11
887.683
868.134
858.971
851.952
853.943
864.716
882.185
906.652
939.997
984.237
1030.6
1123.35
1.9251e-08
6.71669e-08
1.95651e-07
5.85732e-07
1.76037e-06
5.29392e-06
1.60015e-05
4.84079e-05
0.000148016
0.000454217
0.0014178
0.00446838
0.0142157
0.045747
0.14516
0.421228
1.46126
8.2619
40.0784
123.14
260.218
427.598
597.865
749.74
870.203
962.38
1027.96
1071.76
1107.92
1141.79
1171.96
1193.21
1211.38
1231.02
1253.85
1286.98
1322.27
1357.14
1386.97
1440.53
1.90716e-08
6.65326e-08
1.93831e-07
5.80247e-07
1.74166e-06
5.22476e-06
1.57025e-05
4.71966e-05
0.000142409
0.000430875
0.00131067
0.00401035
0.0122506
0.0372035
0.111861
0.317743
0.84798
2.17435
5.84265
16.9497
45.9729
104.86
200.247
330.479
483.927
645.574
802.757
946.744
1070.45
1173.82
1260.57
1338.51
1412.84
1483.72
1551.47
1621.58
1686.58
1752.15
1809.4
1883.66
1.92025e-08
6.69449e-08
1.94905e-07
5.82802e-07
1.74552e-06
5.22191e-06
1.56066e-05
4.65862e-05
0.000138995
0.000414703
0.00123711
0.00369024
0.0109411
0.0320424
0.0917615
0.254246
0.667336
1.63365
3.75984
8.17573
16.9828
33.9356
64.8485
116.856
196.221
305.531
442.904
602.148
773.35
946.349
1113.32
1267.43
1406.43
1532.38
1651.01
1762.75
1868.51
1972.13
2060.34
2183.36
1.94274e-08
6.76913e-08
1.96771e-07
5.87083e-07
1.7531e-06
5.22466e-06
1.55375e-05
4.60864e-05
0.000136357
0.000402349
0.00118369
0.0034665
0.0100609
0.0287449
0.0800451
0.215362
0.554571
1.35182
3.09505
6.64933
13.4442
25.6498
46.3324
79.3712
129.266
200.487
296.601
419.003
566.284
733.736
914.874
1101.27
1286.19
1463.03
1628.79
1781.05
1921.79
2049.36
2154.91
2301.05
1.94239e-08
6.77026e-08
1.96738e-07
5.86437e-07
1.74841e-06
5.19925e-06
1.54104e-05
4.54979e-05
0.000133788
0.000391652
0.00114084
0.00330028
0.0094418
0.0265436
0.0726914
0.19222
0.486905
1.17377
2.67872
5.77102
11.7241
22.4788
40.7603
70.0624
114.436
177.983
264.231
375.072
510.557
667.859
842.587
1028.19
1218.68
1407.24
1589.81
1761.15
1919.66
2063.5
2181.16
2334.66
1.93934e-08
6.76165e-08
1.96507e-07
5.85694e-07
1.74493e-06
5.18051e-06
1.53177e-05
4.50728e-05
0.000131914
0.000383825
0.00110948
0.00318074
0.00900776
0.0250511
0.0678754
0.177717
0.446268
1.06826
2.4277
5.22466
10.6394
20.4982
37.4051
64.7254
106.426
166.568
248.766
355.203
486.265
639.61
811.145
994.49
1183.59
1371.6
1554.23
1726.71
1886.87
2033.16
2152.65
2309.73
1.94051e-08
6.76498e-08
1.96512e-07
5.8529e-07
1.74199e-06
5.16492e-06
1.52408e-05
4.47244e-05
0.000130422
0.000377757
0.00108592
0.00309318
0.00869892
0.0240185
0.0646399
0.168251
0.420602
1.00386
2.27843
4.90469
10.0044
19.3298
35.4052
61.529
101.624
159.74
239.489
343.07
470.877
620.662
788.387
967.876
1153.12
1337.45
1516.4
1685.32
1841.7
1984.89
2101.38
2255.84
1.93478e-08
6.74402e-08
1.95809e-07
5.82793e-07
1.73296e-06
5.1317e-06
1.51173e-05
4.42636e-05
0.000128726
0.000371627
0.00106433
0.00301909
0.00845395
0.0232421
0.0623108
0.161689
0.403376
0.961953
2.18417
4.7087
9.62662
18.6532
34.2712
59.7481
98.9796
155.992
234.371
336.289
462.057
609.417
774.286
950.586
1132.3
1313.03
1488.34
1653.88
1806.99
1947.39
2061.33
2212.75
1.93356e-08
6.73824e-08
1.95539e-07
5.81546e-07
1.72752e-06
5.10905e-06
1.5027e-05
4.39146e-05
0.000127421
0.00036688
0.00104765
0.00296246
0.00826954
0.0226692
0.0606282
0.157052
0.39146
0.933568
2.12162
4.58159
9.3866
18.2341
33.5948
58.7203
97.4939
153.938
231.592
332.59
457.148
602.94
765.745
939.563
1118.44
1296.25
1468.57
1631.45
1782.05
1920.48
2032.73
2182.29
1.9329e-08
6.73425e-08
1.9532e-07
5.80496e-07
1.72287e-06
5.08951e-06
1.49495e-05
4.36198e-05
0.000126338
0.00036303
0.00103439
0.00291833
0.00812834
0.0222382
0.0593818
0.153668
0.382878
0.913385
2.07754
4.4927
9.22211
17.9515
33.1374
58.03
96.5036
152.582
229.774
330.18
453.922
598.644
760.039
932.172
1109.04
1284.76
1454.92
1615.93
1764.68
1901.65
2012.71
2160.9
1.93324e-08
6.73366e-08
1.95208e-07
5.79765e-07
1.71925e-06
5.07399e-06
1.48874e-05
4.33838e-05
0.00012548
0.000360025
0.00102421
0.00288504
0.0080234
0.0219216
0.0584733
0.151211
0.376648
0.898667
2.04531
4.42718
9.09816
17.7334
32.7803
57.4832
95.7107
151.483
228.29
328.221
451.333
595.288
755.655
926.672
1102.19
1276.66
1445.43
1605.35
1753.02
1889.13
1999.58
2147.01
1.93354e-08
6.73319e-08
1.95082e-07
5.79001e-07
1.71558e-06
5.05843e-06
1.48262e-05
4.31571e-05
0.000124674
0.000357262
0.00101503
0.00285554
0.00793174
0.0216484
0.0576956
0.149116
0.371327
0.886012
2.01717
4.3689
8.98513
17.5299
32.4357
56.9375
94.8892
150.321
226.696
326.158
448.684
592.069
751.736
922.153
1096.91
1270.92
1439.17
1598.6
1746.12
1882.01
1992.52
2139.93
1.81245e-13
5.76268e-13
1.67568e-12
5.0098e-12
1.50186e-11
4.50128e-11
1.34788e-10
4.03068e-10
1.20302e-09
3.58152e-09
1.06282e-08
3.14157e-08
9.24398e-08
2.70625e-07
7.87811e-07
2.27833e-06
6.53412e-06
1.85336e-05
5.18099e-05
0.000142142
0.000381049
0.000994077
0.00251483
0.00615124
0.0145149
0.0329837
0.0720949
0.151438
0.305517
0.591756
1.10008
1.9627
3.36
5.52059
8.7034
13.1773
19.1163
26.855
35.1721
51.8353
1.81227e-13
5.76313e-13
1.67625e-12
5.01296e-12
1.50326e-11
4.5076e-11
1.35062e-10
4.04153e-10
1.20715e-09
3.59658e-09
1.06813e-08
3.15972e-08
9.30424e-08
2.72567e-07
7.93888e-07
2.29658e-06
6.58795e-06
1.86807e-05
5.22078e-05
0.000143131
0.000383336
0.000998968
0.00252423
0.00616653
0.0145329
0.0329845
0.0720165
0.151118
0.304616
0.589568
1.09545
1.95356
3.3438
5.49306
8.66027
13.1148
19.0297
26.7431
35.0471
51.7168
1.81177e-13
5.76208e-13
1.67627e-12
5.01474e-12
1.50454e-11
4.51413e-11
1.35351e-10
4.05358e-10
1.21187e-09
3.61429e-09
1.07452e-08
3.18197e-08
9.37903e-08
2.74995e-07
8.01484e-07
2.31942e-06
6.65284e-06
1.88607e-05
5.26534e-05
0.000144173
0.000385534
0.00100281
0.0025288
0.00616508
0.0145005
0.0328499
0.0716025
0.150032
0.30207
0.584098
1.08462
1.93345
3.30907
5.43619
8.57327
12.9883
18.8569
26.519
34.7935
51.4449
1.81375e-13
5.76893e-13
1.67862e-12
5.02345e-12
1.50788e-11
4.52713e-11
1.35854e-10
4.07274e-10
1.219e-09
3.64022e-09
1.0837e-08
3.21357e-08
9.48459e-08
2.78408e-07
8.12118e-07
2.35128e-06
6.74311e-06
1.91063e-05
5.32495e-05
0.000145558
0.000388284
0.00100704
0.0025318
0.00615334
0.0144295
0.0325985
0.0708803
0.148207
0.297897
0.575297
1.06739
1.90187
3.25488
5.34864
8.44043
12.7977
18.6002
26.1992
34.4346
51.0629
1.81498e-13
5.77328e-13
1.68012e-12
5.02899e-12
1.5101e-11
4.53663e-11
1.36265e-10
4.08993e-10
1.22593e-09
3.66694e-09
1.09362e-08
3.24905e-08
9.60682e-08
2.8246e-07
8.24992e-07
2.39034e-06
6.8554e-06
1.94043e-05
5.40149e-05
0.000147136
0.000391354
0.00101111
0.00253125
0.0061261
0.0143071
0.0321998
0.0697787
0.145491
0.291779
0.562547
1.04264
1.85687
3.17806
5.22511
8.25344
12.5304
18.2409
25.769
33.9454
50.5464
1.81775e-13
5.78242e-13
1.68321e-12
5.03941e-12
1.51359e-11
4.54897e-11
1.36742e-10
4.1091e-10
1.23372e-09
3.69789e-09
1.10552e-08
3.29293e-08
9.76238e-08
2.8774e-07
8.42163e-07
2.44333e-06
7.01066e-06
1.98265e-05
5.50742e-05
0.000149587
0.000395865
0.0010184
0.00253499
0.00610024
0.0141685
0.0317266
0.0684449
0.142169
0.284256
0.546826
1.01208
1.80127
3.08318
5.0727
8.02319
12.2022
17.8148
25.2638
33.3728
49.9519
1.82506e-13
5.80548e-13
1.69003e-12
5.06001e-12
1.5202e-11
4.57132e-11
1.37539e-10
4.13886e-10
1.24514e-09
3.74152e-09
1.12198e-08
3.35331e-08
9.97728e-08
2.95102e-07
8.66416e-07
2.51943e-06
7.23664e-06
2.04571e-05
5.66816e-05
0.000153411
0.000403683
0.00103128
0.00255053
0.00609202
0.0140471
0.0312415
0.0669931
0.138445
0.275698
0.528814
0.976969
1.73738
2.97423
4.89808
7.76007
11.8296
17.3553
24.7076
32.7448
49.302
1.82467e-13
5.80189e-13
1.68893e-12
5.0606e-12
1.52219e-11
4.58426e-11
1.38184e-10
4.16766e-10
1.25737e-09
3.79146e-09
1.14169e-08
3.42831e-08
1.02524e-07
3.04819e-07
8.99322e-07
2.62528e-06
7.56e-06
2.13777e-05
5.91239e-05
0.000159248
0.000416635
0.00105495
0.00258473
0.00611975
0.0139773
0.0308197
0.0655755
0.13462
0.266628
0.509308
0.938429
1.66692
2.85428
4.70709
7.47487
11.4468
16.8807
24.1328
32.1071
48.6606
1.82354e-13
5.79667e-13
1.68836e-12
5.06397e-12
1.52526e-11
4.60129e-11
1.39006e-10
4.20365e-10
1.27267e-09
3.85407e-09
1.16678e-08
3.52608e-08
1.06196e-07
3.18208e-07
9.4576e-07
2.77975e-06
8.04756e-06
2.27933e-05
6.28893e-05
0.000168343
0.000436466
0.00109492
0.00265256
0.0062111
0.0140454
0.0306405
0.0646249
0.131725
0.259509
0.493979
0.908322
1.61198
2.76016
4.55557
7.24833
11.164
16.5245
23.7106
31.6521
48.2242
1.82569e-13
5.80544e-13
1.69181e-12
5.07528e-12
1.52993e-11
4.62219e-11
1.40011e-10
4.24812e-10
1.29233e-09
3.93467e-09
1.19987e-08
3.65633e-08
1.11199e-07
3.36957e-07
1.01326e-06
3.01404e-06
8.78092e-06
2.48468e-05
6.82573e-05
0.000181643
0.00046668
0.0011568
0.00276755
0.00639525
0.0143023
0.0309734
0.064949
0.131811
0.258863
0.491604
0.902357
1.59976
2.73813
4.52097
7.2323
11.1785
16.5767
23.8173
31.8271
48.4845
1.82612e-13
5.8084e-13
1.69304e-12
5.08035e-12
1.53312e-11
4.63907e-11
1.4096e-10
4.29294e-10
1.31419e-09
4.02775e-09
1.24095e-08
3.82212e-08
1.17929e-07
3.62956e-07
1.1162e-06
3.35045e-06
9.84036e-06
2.82208e-05
8.05192e-05
0.000240975
0.000734407
0.00206881
0.00498144
0.0104102
0.020296
0.0392213
0.076486
0.149262
0.287383
0.540093
0.984488
1.73506
2.95542
4.87689
7.78292
11.9457
17.5864
25.0702
33.272
50.0106
1.82379e-13
5.80132e-13
1.69112e-12
5.07814e-12
1.53439e-11
4.65173e-11
1.41816e-10
4.33727e-10
1.33753e-09
4.13242e-09
1.29066e-08
4.02894e-08
1.26976e-07
4.01106e-07
1.24526e-06
3.78577e-06
1.59616e-05
0.00022612
0.00202304
0.00964425
0.0286522
0.0607127
0.096205
0.120419
0.135444
0.153729
0.191815
0.276383
0.448741
0.771373
1.33631
2.28488
3.80474
6.14537
9.5564
14.295
20.5246
28.5362
37.0636
53.6958
1.82447e-13
5.8041e-13
1.69206e-12
5.08393e-12
1.53784e-11
4.67203e-11
1.42901e-10
4.39222e-10
1.36462e-09
4.2595e-09
1.35059e-08
4.29663e-08
1.39178e-07
4.57473e-07
1.34428e-06
2.68983e-05
0.00257803
0.0275606
0.112572
0.267199
0.449557
0.589785
0.647639
0.619205
0.580253
0.5635
0.588208
0.708474
0.985698
1.50615
2.39481
3.82007
5.98347
9.10005
13.3907
19.0373
26.0763
34.6848
43.4164
59.3304
1.81932e-13
5.78784e-13
1.68808e-12
5.07605e-12
1.5377e-11
4.68438e-11
1.43767e-10
4.44819e-10
1.39244e-09
4.4058e-09
1.42017e-08
4.63605e-08
1.54919e-07
5.43016e-07
1.59785e-06
0.00816838
0.145103
0.510415
0.965498
1.27082
1.38883
1.29422
1.17645
1.08431
1.05531
1.1026
1.28983
1.68162
2.36441
3.43049
5.02647
7.29332
10.4088
14.551
19.85
26.3811
34.0091
42.8154
51.2455
65.465
1.81425e-13
5.76968e-13
1.68282e-12
5.06075e-12
1.53554e-11
4.68674e-11
1.44496e-10
4.49562e-10
1.42168e-09
4.55497e-09
1.50152e-08
5.01972e-08
1.77775e-07
6.36562e-07
2.30203e-06
0.388057
1.29202
1.71752
1.83036
1.62984
1.41585
1.19107
1.16024
1.27773
1.61377
2.28181
3.30798
4.63676
6.24883
8.14105
10.4616
13.4309
17.268
22.1402
28.0705
35.015
42.6381
50.9921
58.5086
70.2742
5.35778e-14
5.2398e-13
1.70016e-12
5.09639e-12
1.54155e-11
4.70163e-11
1.45465e-10
4.54504e-10
1.45211e-09
4.70916e-09
1.58834e-08
5.45424e-08
2.06102e-07
7.61032e-07
4.09352e-06
3.31748
2.21203
1.52107
1.28391
1.00608
0.783946
0.835481
1.24731
2.39378
4.56794
7.72894
11.0021
13.7577
16.0901
18.1635
20.3392
23.0122
26.5087
31.0154
36.5123
42.9246
49.7473
57.0906
63.3682
72.7004
5.07442e-14
5.12861e-13
1.68894e-12
5.08826e-12
1.54022e-11
4.70877e-11
1.45952e-10
4.58911e-10
1.47498e-09
4.85622e-09
1.66146e-08
5.9272e-08
2.31318e-07
9.46811e-07
6.76257e-06
6.15638
0.885122
14.3984
37.5034
52.1995
55.0124
55.7692
53.312
47.8075
42.8518
42.4803
44.4688
48.1749
53.3129
59.6648
65.1004
72.9034
1.81684e-13
5.77384e-13
1.68332e-12
5.0624e-12
1.53713e-11
4.71059e-11
1.46254e-10
4.61835e-10
1.4916e-09
4.96254e-09
1.71916e-08
6.29035e-08
2.51651e-07
1.09581e-06
8.24063e-06
6.1747
3.93061
40.9786
70.7188
71.2109
69.875
62.9045
51.5527
42.8848
40.7014
42.2877
45.0665
49.5114
54.7795
60.875
65.5976
72.1745
1.81437e-13
5.76989e-13
1.68185e-12
5.05705e-12
1.53526e-11
4.70675e-11
1.46223e-10
4.62603e-10
1.49832e-09
5.01339e-09
1.75126e-08
6.49754e-08
2.65141e-07
1.20157e-06
9.43173e-06
6.41454
5.07088
48.6352
73.4153
71.1504
63.4499
51.977
40.9804
36.8911
38.1233
40.6389
44.6178
49.8763
55.1952
61.0529
65.1933
70.9325
1.81127e-13
5.76062e-13
1.67886e-12
5.04608e-12
1.5309e-11
4.6916e-11
1.45734e-10
4.61191e-10
1.49485e-09
5.00782e-09
1.75304e-08
6.52108e-08
2.6724e-07
1.2206e-06
9.58878e-06
6.09606
5.58192
51.229
75.0925
72.6632
62.0163
46.6555
36.2351
34.9812
36.8063
39.8435
44.2249
49.6132
54.7577
60.4267
64.2569
69.6257
1.81125e-13
5.76055e-13
1.67885e-12
5.04601e-12
1.53088e-11
4.69153e-11
1.45732e-10
4.61184e-10
1.49483e-09
5.00774e-09
1.75302e-08
6.521e-08
2.67238e-07
1.2206e-06
9.58874e-06
6.09605
5.58196
51.2295
75.0933
72.664
62.0173
46.6561
36.2357
34.9817
36.8067
39.8439
44.2252
49.6134
54.7577
60.4266
64.2568
69.626
1.81476e-13
5.77111e-13
1.68221e-12
5.05824e-12
1.53566e-11
4.70795e-11
1.46263e-10
4.62724e-10
1.49876e-09
5.01466e-09
1.75181e-08
6.49854e-08
2.65268e-07
1.20076e-06
9.43298e-06
6.41487
5.07101
48.6367
73.4176
71.1528
63.4518
51.9778
40.9811
36.892
38.1242
40.6401
44.6193
49.8781
55.197
61.0551
65.1954
70.9344
1.81468e-13
5.77019e-13
1.68254e-12
5.06019e-12
1.53654e-11
4.70881e-11
1.46209e-10
4.61692e-10
1.49132e-09
4.96162e-09
1.7193e-08
6.2901e-08
2.51876e-07
1.09466e-06
8.23979e-06
6.17576
3.93077
40.9804
70.721
71.2127
69.8767
62.9057
51.5537
42.8861
40.7047
42.2911
45.0701
49.5148
54.7828
60.8782
65.6005
72.1777
1.81703e-13
5.77725e-13
1.68517e-12
5.06664e-12
1.53829e-11
4.70658e-11
1.45908e-10
4.58759e-10
1.47459e-09
4.85497e-09
1.66141e-08
5.9262e-08
2.31541e-07
9.45543e-07
6.76458e-06
6.15606
0.885221
14.4003
37.5076
52.2024
55.0149
55.7715
53.3149
47.8121
42.8551
42.483
44.4715
48.1775
53.3148
59.6663
65.1015
72.9055
1.81977e-13
5.78471e-13
1.68738e-12
5.07029e-12
1.53931e-11
4.69974e-11
1.45452e-10
4.54529e-10
1.45221e-09
4.7098e-09
1.58876e-08
5.45378e-08
2.06552e-07
7.59563e-07
4.09124e-06
3.31818
2.2121
1.52142
1.2842
1.00659
0.784219
0.835653
1.24753
2.39426
4.56904
7.73087
11.0045
13.7599
16.0919
18.1649
20.3407
23.014
26.5113
31.0189
36.5167
42.9299
49.7528
57.0967
63.3737
72.7052
1.81457e-13
5.76971e-13
1.6828e-12
5.06001e-12
1.53551e-11
4.68644e-11
1.44509e-10
4.49574e-10
1.42204e-09
4.55541e-09
1.50237e-08
5.01967e-08
1.78069e-07
6.37085e-07
2.29658e-06
0.388406
1.29177
1.71772
1.83089
1.63004
1.41599
1.19114
1.16029
1.27784
1.61397
2.28223
3.30863
4.63763
6.24988
8.14229
10.4631
13.4328
17.2704
22.1432
28.0744
35.02
42.6442
51.0001
58.517
70.2829
1.81935e-13
5.78823e-13
1.688e-12
5.07634e-12
1.53785e-11
4.68495e-11
1.43792e-10
4.44892e-10
1.39283e-09
4.40691e-09
1.42081e-08
4.63801e-08
1.54967e-07
5.44825e-07
1.59656e-06
0.00817004
0.145114
0.510218
0.965162
1.27111
1.3891
1.29447
1.17647
1.08423
1.0552
1.10245
1.28968
1.68153
2.36442
3.43068
5.02694
7.29419
10.4102
14.5531
19.853
26.3855
34.0147
42.8236
51.2549
65.4771
1.82473e-13
5.80498e-13
1.69238e-12
5.08537e-12
1.53819e-11
4.6735e-11
1.42935e-10
4.39379e-10
1.36504e-09
4.26137e-09
1.35104e-08
4.30023e-08
1.39135e-07
4.58974e-07
1.34223e-06
2.69414e-05
0.00258133
0.0275652
0.112548
0.267218
0.44979
0.59017
0.647881
0.619503
0.580467
0.563671
0.588338
0.708568
0.985775
1.50625
2.39498
3.82043
5.98414
9.10125
13.3926
19.0403
26.0803
34.6911
43.4238
59.3412
1.82374e-13
5.80124e-13
1.69113e-12
5.07795e-12
1.53442e-11
4.65189e-11
1.41823e-10
4.33754e-10
1.33768e-09
4.13314e-09
1.29099e-08
4.03029e-08
1.27044e-07
4.01117e-07
1.24733e-06
3.79197e-06
1.59619e-05
0.000226394
0.00202514
0.00965615
0.028678
0.0607706
0.096273
0.120536
0.135615
0.153886
0.191934
0.276451
0.44875
0.771319
1.33621
2.28476
3.80469
6.14555
9.55698
14.2963
20.5265
28.5401
37.0681
53.7024
1.8259e-13
5.80767e-13
1.69279e-12
5.0797e-12
1.533e-11
4.63896e-11
1.40972e-10
4.2936e-10
1.31457e-09
4.02908e-09
1.24152e-08
3.82347e-08
1.1802e-07
3.62998e-07
1.11668e-06
3.35291e-06
9.8455e-06
2.82344e-05
8.05433e-05
0.000241085
0.000735067
0.0020713
0.00498497
0.0104139
0.0203027
0.0392235
0.0764748
0.149222
0.287296
0.539935
0.984234
1.73471
2.95495
4.87638
7.78249
11.9456
17.5865
25.0716
33.2737
50.0133
1.82573e-13
5.80565e-13
1.69188e-12
5.07575e-12
1.53006e-11
4.62251e-11
1.40029e-10
4.24879e-10
1.2926e-09
3.9357e-09
1.20028e-08
3.65772e-08
1.11252e-07
3.37127e-07
1.01367e-06
3.01466e-06
8.78394e-06
2.48547e-05
6.82745e-05
0.000181678
0.00046668
0.00115713
0.00276628
0.00639677
0.0143095
0.0309691
0.0649422
0.131789
0.258818
0.491521
0.902231
1.59959
2.73795
4.52077
7.23219
11.1784
16.5771
23.8186
31.8291
48.488
1.82415e-13
5.79878e-13
1.68895e-12
5.06581e-12
1.52585e-11
4.60307e-11
1.39057e-10
4.20511e-10
1.27307e-09
3.85513e-09
1.16708e-08
3.52694e-08
1.06221e-07
3.18291e-07
9.46043e-07
2.78047e-06
8.04904e-06
2.27951e-05
6.28925e-05
0.00016833
0.000436586
0.00109425
0.00265312
0.00620963
0.0140353
0.0306333
0.0646058
0.131693
0.259452
0.493886
0.908184
1.6118
2.75996
4.55545
7.24847
11.1648
16.5257
23.713
31.6553
48.2292
1.82536e-13
5.80408e-13
1.68955e-12
5.06248e-12
1.52285e-11
4.58638e-11
1.38252e-10
4.16976e-10
1.25799e-09
3.79307e-09
1.14209e-08
3.4293e-08
1.0255e-07
3.04889e-07
8.99524e-07
2.62587e-06
7.56152e-06
2.13818e-05
5.91246e-05
0.000159287
0.000416394
0.00105509
0.00258465
0.00611752
0.0139751
0.0308118
0.0655612
0.134594
0.266586
0.509248
0.93835
1.66682
2.85419
4.70705
7.47495
11.4473
16.8815
24.1343
32.109
48.6632
1.82475e-13
5.80455e-13
1.68972e-12
5.05943e-12
1.52012e-11
4.57139e-11
1.37551e-10
4.13952e-10
1.24541e-09
3.74244e-09
1.12227e-08
3.35418e-08
9.97984e-08
2.95177e-07
8.66633e-07
2.52002e-06
7.23838e-06
2.04598e-05
5.66944e-05
0.000153432
0.000403652
0.00103128
0.0025504
0.00609184
0.0140465
0.03124
0.0669896
0.138438
0.275688
0.528803
0.976967
1.73741
2.97434
4.89834
7.76057
11.8306
17.3569
24.7103
32.7484
49.3079
1.81787e-13
5.78285e-13
1.68333e-12
5.03961e-12
1.51365e-11
4.54901e-11
1.36737e-10
4.109e-10
1.23372e-09
3.69795e-09
1.10556e-08
3.29313e-08
9.76314e-08
2.87767e-07
8.4224e-07
2.4436e-06
7.01097e-06
1.98285e-05
5.50797e-05
0.000149536
0.000395909
0.00101805
0.00253451
0.00609934
0.0141664
0.0317215
0.0684337
0.142146
0.284215
0.546758
1.01198
1.80114
3.08303
5.07259
8.02317
12.2025
17.8155
25.2654
33.3754
49.9564
1.81574e-13
5.77571e-13
1.68084e-12
5.03109e-12
1.51072e-11
4.53842e-11
1.36314e-10
4.09128e-10
1.2263e-09
3.66801e-09
1.09393e-08
3.24997e-08
9.60956e-08
2.82539e-07
8.25222e-07
2.39096e-06
6.85693e-06
1.94108e-05
5.40036e-05
0.000147217
0.000391415
0.00101113
0.00253128
0.00612568
0.0143053
0.032195
0.0697678
0.145468
0.291737
0.562478
1.04254
1.85674
3.17792
5.22505
8.25358
12.5309
18.242
25.771
33.9482
50.5495
1.8133e-13
5.76754e-13
1.67824e-12
5.02246e-12
1.50764e-11
4.52656e-11
1.35839e-10
4.07233e-10
1.21889e-09
3.63992e-09
1.08362e-08
3.21339e-08
9.48418e-08
2.78399e-07
8.12101e-07
2.35121e-06
6.74311e-06
1.91039e-05
5.32569e-05
0.000145539
0.00038822
0.00100691
0.00253139
0.00615243
0.0144277
0.0325949
0.0708731
0.148194
0.297874
0.57526
1.06734
1.90183
3.25487
5.34871
8.44062
12.7981
18.6008
26.2003
34.4363
51.0663
1.81117e-13
5.76019e-13
1.67573e-12
5.01309e-12
1.50407e-11
4.51279e-11
1.35307e-10
4.05227e-10
1.21152e-09
3.61323e-09
1.07421e-08
3.18108e-08
9.37648e-08
2.74922e-07
8.01264e-07
2.31884e-06
6.65128e-06
1.88523e-05
5.26413e-05
0.000144135
0.000385401
0.00100249
0.00252805
0.00616327
0.0144963
0.0328403
0.0715817
0.149989
0.301986
0.58394
1.08434
1.93297
3.3083
5.43503
8.57164
12.9862
18.8544
26.5164
34.7912
51.4442
1.81235e-13
5.7634e-13
1.67633e-12
5.01316e-12
1.50333e-11
4.50786e-11
1.3507e-10
4.04173e-10
1.20718e-09