/*--------------------------------*- C++ -*----------------------------------*\
| =========                 |                                                 |
| \\      /  F ield         | OpenFOAM: The Open Source CFD Toolbox           |
|  \\    /   O peration     | Version:  2412                                  |
|   \\  /    A nd           | Website:  www.openfoam.com                      |
|    \\/     M anipulation  |                                                 |
\*---------------------------------------------------------------------------*/
FoamFile
{
    version     2.0;
    format      ascii;
    arch        "LSB;label=32;scalar=64";
    class       volScalarField;
    location    "5";
    object      scr4;
}
// * * * * * * * * * * * * * * * * * * * * * * * * * * * * * * * * * * * * * //

dimensions      [0 1 -1 0 0 0 0];

internalField   nonuniform List<scalar> 
47360
(
1.67961e-08
5.74068e-08
1.66502e-07
4.9521e-07
1.47222e-06
4.36147e-06
1.28639e-05
3.7742e-05
0.000110071
0.000318972
0.000918142
0.00262256
0.00741533
0.020661
0.0563707
0.149517
0.382827
0.940317
2.20514
4.91991
10.4182
20.912
39.768
71.6537
122.395
198.414
305.679
448.438
627.839
841.41
1082.78
1343.3
1612.72
1882.06
2142.84
2389.62
2616.77
2825.06
2993.41
3215.8
1.67824e-08
5.73696e-08
1.66465e-07
4.95367e-07
1.47364e-06
4.36892e-06
1.28963e-05
3.78699e-05
0.000110553
0.000320687
0.000924027
0.00264201
0.00747749
0.0208519
0.0569321
0.151084
0.386953
0.950559
2.22871
4.97034
10.5202
21.1017
40.0985
72.192
123.225
199.61
307.344
450.619
630.659
844.848
1086.98
1348.12
1618.36
1888.13
2149.46
2396.65
2623.93
2832.36
3000.44
3222.62
1.67875e-08
5.7398e-08
1.6661e-07
4.96041e-07
1.47653e-06
4.38068e-06
1.29423e-05
3.8044e-05
0.000111189
0.000322933
0.000931711
0.00266747
0.00755905
0.0211028
0.0576688
0.153128
0.392274
0.963458
2.25789
5.03111
10.6365
21.3108
40.4453
72.7242
123.993
200.66
308.731
452.406
632.978
847.828
1090.89
1353.1
1624.66
1895.74
2158.55
2406.77
2635.24
2844.59
3013.31
3236.25
1.68447e-08
5.76026e-08
1.67267e-07
4.9823e-07
1.48391e-06
4.40591e-06
1.30283e-05
3.83348e-05
0.000112167
0.000326207
0.000942547
0.00270278
0.00767135
0.0214476
0.0586802
0.155929
0.399544
0.980985
2.29701
5.11164
10.7897
21.5751
40.8725
73.3698
124.893
201.842
310.241
454.316
635.473
851.144
1095.44
1359.2
1632.76
1905.91
2171.03
2421.29
2651.84
2862.76
3032.83
3257.29
1.68411e-08
5.75971e-08
1.67311e-07
4.98605e-07
1.48589e-06
4.41551e-06
1.30712e-05
3.85142e-05
0.000112898
0.00032905
0.000953124
0.0027405
0.00779975
0.0218631
0.0599486
0.159553
0.409183
1.00468
2.35072
5.22359
11.0041
21.955
41.4898
74.2949
126.208
203.621
312.581
457.322
639.366
856.254
1102.25
1368.19
1644.45
1920.57
2188.87
2442.04
2675.44
2888.56
3060.58
3287.09
1.6774e-08
5.73741e-08
1.66721e-07
4.97177e-07
1.48315e-06
4.41288e-06
1.30866e-05
3.86515e-05
0.000113618
0.000332237
0.000965883
0.00278829
0.00796817
0.0224239
0.0617008
0.164669
0.423043
1.03938
2.43071
5.39334
11.3363
22.5553
42.4965
75.8665
128.512
206.809
316.821
462.826
646.453
865.289
1113.77
1382.7
1662.47
1942.24
2214.3
2470.87
2707.6
2923.44
3098.04
3327.63
1.67589e-08
5.73288e-08
1.66657e-07
4.97305e-07
1.48495e-06
4.42419e-06
1.31437e-05
3.89117e-05
0.000114731
0.000336757
0.000983461
0.00285384
0.00820125
0.0232121
0.0642101
0.172143
0.443713
1.09222
2.55528
5.66425
11.8811
23.5699
44.2541
78.7021
132.799
212.922
325.113
473.62
660.081
882.031
1133.9
1406.3
1689.6
1972.72
2248.13
2507.85
2748.13
2967.33
3145.78
3380.06
1.6805e-08
5.74824e-08
1.67114e-07
4.98775e-07
1.49032e-06
4.44489e-06
1.32276e-05
3.92541e-05
0.000116143
0.000342453
0.00100594
0.00293946
0.00851471
0.024305
0.0678022
0.183169
0.47516
1.17523
2.75685
6.11456
12.8031
25.3058
47.2694
83.5611
140.095
223.183
338.755
490.721
680.389
904.901
1158.5
1431.85
1715.63
1999.05
2275.25
2536.33
2779.24
3000.82
3182.18
3424.73
1.68162e-08
5.75056e-08
1.67196e-07
4.99109e-07
1.49237e-06
4.45738e-06
1.32957e-05
3.95926e-05
0.000117699
0.000349182
0.00103387
0.00305109
0.00894148
0.0258583
0.0731006
0.200083
0.525539
1.31171
3.08977
6.84562
14.2657
27.9864
51.8296
90.7869
150.8
238.103
358.327
515.156
709.475
938.103
1194.82
1469.82
1753.5
2034.96
2307.51
2562.86
2798.1
3009.05
3187.5
3426.42
1.66862e-08
5.70649e-08
1.66004e-07
4.96085e-07
1.48591e-06
4.44925e-06
1.33229e-05
3.98713e-05
0.000119348
0.000357258
0.00106997
0.0032043
0.00955086
0.0281671
0.0812868
0.227671
0.60912
1.52769
3.59688
7.9509
16.5234
32.4142
60.3007
106.631
179.322
286.52
434.142
623.743
851.749
1109.22
1383.01
1659
1926.88
2177.21
2406.38
2613.22
2806.27
2986.92
3142.66
3344.64
1.66416e-08
5.6929e-08
1.65772e-07
4.96223e-07
1.48999e-06
4.47452e-06
1.34592e-05
4.04893e-05
0.000122236
0.000369651
0.00112363
0.00342843
0.0104535
0.0316763
0.094648
0.273001
0.734926
1.87268
4.56364
10.9733
26.1312
59.4154
123.145
228.292
381.203
581.015
816.612
1070.37
1325.09
1567.01
1783.24
1969.78
2131.15
2276.66
2416.96
2558.42
2691.46
2814.75
2916.06
3035.52
1.67416e-08
5.72977e-08
1.669e-07
4.99939e-07
1.50307e-06
4.52322e-06
1.36658e-05
4.13256e-05
0.000126071
0.000385432
0.00119556
0.00372886
0.0117446
0.0370234
0.116637
0.33918
0.974533
3.90155
17.9224
61.4654
156.367
313.732
523.823
764.699
1013.01
1248.46
1453.29
1619.85
1741.97
1827.97
1901.23
1970.47
2036.59
2099.19
2152.74
2210.69
2266.77
2317.51
2355.21
2412.16
1.68335e-08
5.76287e-08
1.67768e-07
5.02746e-07
1.51239e-06
4.56573e-06
1.38565e-05
4.2222e-05
0.0001303
0.000404121
0.00128437
0.00412415
0.0135311
0.045896
0.14579
0.515879
8.0519
62.7573
211.554
446.93
723.99
981.885
1193.26
1360.91
1473.24
1531.8
1574.33
1609.71
1621.8
1604.63
1584.06
1571.71
1561.68
1557.07
1565.53
1582.64
1614.16
1661.79
1714.77
1834.21
1.69538e-08
5.80462e-08
1.68848e-07
5.06345e-07
1.52277e-06
4.614e-06
1.40321e-05
4.31669e-05
0.000134379
0.000424881
0.00138449
0.00462964
0.0159834
0.0603702
0.185427
12.5235
158.16
496.075
839.233
1097.68
1227.72
1254.53
1267.61
1289.65
1278.48
1237.72
1193.45
1138.42
1082.91
1035.76
996.86
1007.43
1031.48
1073.69
1136.14
1216.98
1313.37
1427.01
1531.64
1700.77
1.70161e-08
5.81727e-08
1.69177e-07
5.06307e-07
1.52445e-06
4.61898e-06
1.41044e-05
4.36754e-05
0.000137544
0.000443759
0.00149573
0.00521173
0.0196787
0.0808406
0.292181
283.054
842.256
1064.99
1100.73
1092.5
986.085
897.733
830.585
755.598
690.528
680.546
684.368
694.681
735.375
805.072
883.154
956.972
1022.17
1083.88
1149.24
1224.8
1310.88
1412.79
1506.82
1669.43
1.67217e-08
5.71215e-08
1.66343e-07
4.97665e-07
1.50455e-06
4.56362e-06
1.40589e-05
4.38023e-05
0.000140367
0.000462706
0.00161794
0.00590894
0.0249366
0.107046
0.496318
1682.69
1103.31
780.736
552.099
322.375
120.901
78.3806
111.196
248.69
433.978
701.043
917.5
941.283
972.087
976.785
983.617
1025.53
1074.58
1133.77
1201.72
1279.79
1361.95
1458.18
1538.27
1674.92
1.65871e-08
5.66907e-08
1.6513e-07
4.94888e-07
1.49711e-06
4.56083e-06
1.41031e-05
4.43679e-05
0.000143724
0.000484582
0.00173408
0.00674422
0.0300123
0.140404
0.729388
2540.28
76.4904
718.523
1058.98
1158.31
1223.25
1274.33
1299.83
1313.37
1308.28
1292.85
1289.33
1334.99
1388.59
1465.71
1529.6
1640.2
1.6592e-08
5.6723e-08
1.65113e-07
4.94866e-07
1.49612e-06
4.56607e-06
1.4139e-05
4.47534e-05
0.000146037
0.000500404
0.00182983
0.00742944
0.0341047
0.16963
0.841863
2378.55
167.054
1028.95
1305.17
1257.77
1225.77
1249.23
1234.37
1191.32
1153.02
1154.71
1200.24
1260.44
1322.52
1409.33
1460.9
1556.65
1.64679e-08
5.63299e-08
1.63911e-07
4.91132e-07
1.48469e-06
4.53643e-06
1.40678e-05
4.47187e-05
0.000146618
0.000508329
0.00188174
0.00786745
0.0369294
0.187534
0.920379
2272.58
184.094
1085.53
1378.5
1290.99
1172.87
1081.13
1002.52
972.036
981.868
1037.59
1099.23
1175.12
1244.08
1333.73
1378.75
1476.31
1.65883e-08
5.6707e-08
1.64766e-07
4.93258e-07
1.48936e-06
4.54451e-06
1.40772e-05
4.47123e-05
0.00014663
0.000508739
0.00188946
0.00793051
0.0369809
0.186759
0.887372
2014.82
190.181
1093.41
1395.33
1300.21
1178.53
1049.31
912.89
865.332
908.542
972.638
1040.51
1122.12
1190.35
1278.29
1320.81
1420.66
1.6588e-08
5.6706e-08
1.64762e-07
4.93248e-07
1.48932e-06
4.5444e-06
1.40768e-05
4.4711e-05
0.000146626
0.000508721
0.00188938
0.00793018
0.036979
0.186748
0.887324
2014.8
190.178
1093.44
1395.37
1300.24
1178.55
1049.33
912.894
865.328
908.533
972.626
1040.49
1122.1
1190.33
1278.27
1320.78
1420.63
1.6467e-08
5.63269e-08
1.63902e-07
4.91099e-07
1.4847e-06
4.53652e-06
1.40674e-05
4.4718e-05
0.000146619
0.000508337
0.00188175
0.00786681
0.0369298
0.187415
0.92012
2272.53
184.083
1085.61
1378.61
1291.08
1172.95
1081.17
1002.53
972.035
981.862
1037.58
1099.22
1175.1
1244.05
1333.68
1378.7
1476.25
1.65906e-08
5.67183e-08
1.65102e-07
4.94838e-07
1.49598e-06
4.56578e-06
1.41392e-05
4.4755e-05
0.00014605
0.000500457
0.00183023
0.00742976
0.034121
0.169444
0.841419
2378.5
167.051
1029.08
1305.32
1257.88
1225.86
1249.29
1234.4
1191.34
1153.06
1154.72
1200.25
1260.44
1322.53
1409.32
1460.88
1556.62
1.65844e-08
5.66823e-08
1.65103e-07
4.94836e-07
1.49705e-06
4.5603e-06
1.41014e-05
4.43621e-05
0.000143707
0.000484536
0.00173401
0.00674387
0.0300264
0.14023
0.729034
2540.22
76.5135
718.758
1059.27
1158.52
1223.43
1274.49
1300
1313.53
1308.41
1292.99
1289.47
1335.13
1388.74
1465.85
1529.73
1640.27
1.67575e-08
5.72448e-08
1.66706e-07
4.9868e-07
1.50754e-06
4.57326e-06
1.40885e-05
4.38967e-05
0.000140653
0.000463559
0.00162041
0.00591398
0.0249809
0.106872
0.495984
1682.61
1103.28
780.697
552.081
322.452
121.008
78.4131
111.158
248.493
433.777
701.029
917.67
941.475
972.285
976.97
983.799
1025.73
1074.8
1134.03
1202
1280.07
1362.21
1458.42
1538.48
1675.1
1.69645e-08
5.79979e-08
1.68681e-07
5.0484e-07
1.52027e-06
4.60702e-06
1.4073e-05
4.35908e-05
0.000137348
0.000443325
0.00149544
0.00521023
0.0197102
0.0807143
0.291972
283.088
842.063
1064.9
1100.67
1092.39
986.143
897.78
830.673
755.748
690.787
680.864
684.772
695.114
735.798
805.43
883.445
957.254
1022.49
1084.26
1149.65
1225.22
1311.28
1413.14
1507.12
1669.69
1.69146e-08
5.79113e-08
1.68452e-07
5.0518e-07
1.51926e-06
4.60338e-06
1.39978e-05
4.30592e-05
0.00013405
0.000423923
0.00138197
0.00462248
0.0159829
0.0602787
0.185204
12.5231
158.111
495.959
839.064
1097.43
1227.59
1254.51
1267.52
1289.51
1278.41
1237.67
1193.47
1138.55
1083.17
1036.15
997.382
1008.01
1032.07
1074.31
1136.78
1217.61
1313.97
1427.55
1532.19
1701.34
1.684e-08
5.76525e-08
1.67832e-07
5.02935e-07
1.51283e-06
4.56668e-06
1.38561e-05
4.22103e-05
0.000130223
0.000403817
0.00128321
0.00412039
0.0135242
0.0458422
0.145733
0.515178
8.04748
62.7396
211.501
446.822
723.819
981.693
1193.07
1360.73
1473.13
1531.73
1574.23
1609.57
1621.62
1604.47
1583.98
1571.72
1561.82
1557.5
1566.09
1583.39
1615.08
1662.86
1715.91
1835.32
1.67395e-08
5.72911e-08
1.66886e-07
4.99914e-07
1.50307e-06
4.52347e-06
1.36672e-05
4.13322e-05
0.000126092
0.000385496
0.00119571
0.00372883
0.0117463
0.0370036
0.116589
0.339158
0.973859
3.89863
17.9104
61.4282
156.276
313.563
523.597
764.454
1012.76
1248.23
1453.08
1619.66
1741.82
1827.82
1900.97
1970.07
2036.1
2098.72
2152.38
2210.5
2266.78
2317.86
2355.97
2413.54
1.66327e-08
5.69003e-08
1.657e-07
4.9598e-07
1.48925e-06
4.47242e-06
1.34546e-05
4.04821e-05
0.000122236
0.000369695
0.00112387
0.00342907
0.010456
0.0316799
0.0946173
0.27289
0.734788
1.87194
4.5608
10.9643
26.1055
59.3513
123.015
228.072
380.884
580.603
816.132
1069.86
1324.56
1566.45
1782.66
1969.14
2130.41
2275.74
2415.82
2557.12
2690.13
2813.59
2915.04
3035.26
1.66835e-08
5.70536e-08
1.6597e-07
4.95991e-07
1.48577e-06
4.44922e-06
1.33221e-05
3.98711e-05
0.000119354
0.00035729
0.00107011
0.00320473
0.0095519
0.0281699
0.0812856
0.227598
0.608781
1.52685
3.59484
7.94579
16.511
32.3863
60.243
106.523
179.134
286.225
433.717
623.18
851.049
1108.39
1382.06
1657.92
1925.64
2175.82
2404.84
2611.53
2804.4
2984.98
3140.67
3342.97
1.68124e-08
5.74955e-08
1.67161e-07
4.98999e-07
1.49204e-06
4.45641e-06
1.32941e-05
3.95873e-05
0.000117685
0.000349151
0.00103382
0.003051
0.00894113
0.0258564
0.0730924
0.200042
0.525349
1.31098
3.08757
6.84026
14.2543
27.9641
51.7878
90.7133
150.677
237.912
358.048
514.772
708.974
937.475
1194.05
1468.91
1752.42
2033.71
2306.06
2561.23
2796.33
3007.2
3185.59
3424.63
1.68029e-08
5.74746e-08
1.671e-07
4.98774e-07
1.49025e-06
4.44457e-06
1.32265e-05
3.92513e-05
0.000116135
0.000342429
0.00100587
0.00293925
0.00851395
0.0243019
0.0677892
0.183122
0.474999
1.17472
2.75537
6.11065
12.7938
25.2861
47.2318
83.4962
139.992
223.029
338.54
490.435
680.03
904.47
1158
1431.28
1714.98
1998.31
2274.41
2535.37
2778.16
2999.64
3180.92
3423.48
1.67571e-08
5.73226e-08
1.66645e-07
4.97279e-07
1.48483e-06
4.42393e-06
1.31433e-05
3.89114e-05
0.000114733
0.000336767
0.00098349
0.00285387
0.00820105
0.0232103
0.0642003
0.172103
0.443571
1.09178
2.55407
5.66122
11.8742
23.5554
44.2261
78.652
132.716
212.795
324.933
473.38
659.783
881.684
1133.52
1405.88
1689.16
1972.25
2247.64
2507.32
2747.58
2966.77
3145.21
3379.5
1.67644e-08
5.73423e-08
1.66631e-07
4.96874e-07
1.48217e-06
4.41091e-06
1.30833e-05
3.86441e-05
0.000113608
0.000332227
0.000965881
0.00278829
0.00796798
0.0224224
0.061693
0.164636
0.422927
1.03901
2.42971
5.39082
11.3306
22.5435
42.4737
75.8271
128.443
206.708
316.689
462.648
646.229
865.019
1113.47
1382.39
1662.16
1941.93
2214
2470.58
2707.32
2923.18
3097.8
3327.42
1.68373e-08
5.75854e-08
1.67277e-07
4.98524e-07
1.48566e-06
4.41444e-06
1.30687e-05
3.85103e-05
0.000112888
0.000329029
0.000953079
0.00274039
0.00779935
0.0218614
0.0599413
0.159526
0.409087
1.00439
2.3499
5.22155
10.9998
21.9442
41.4692
74.2655
126.159
203.549
312.47
457.176
639.192
856.053
1102.03
1367.95
1644.2
1920.33
2188.65
2441.83
2675.24
2888.38
3060.42
3286.98
1.685e-08
5.76209e-08
1.67323e-07
4.98433e-07
1.48456e-06
4.40738e-06
1.30308e-05
3.83384e-05
0.000112171
0.000326207
0.000942542
0.00270276
0.00767118
0.0214466
0.058675
0.155908
0.399471
0.980757
2.29642
5.1099
10.7855
21.5692
40.8606
73.3426
124.851
201.778
310.151
454.199
635.329
850.98
1095.26
1359.02
1632.57
1905.72
2170.86
2421.13
2651.69
2862.63
3032.72
3257.23
1.67873e-08
5.73976e-08
1.66611e-07
4.96048e-07
1.47656e-06
4.38074e-06
1.29424e-05
3.80438e-05
0.000111187
0.000322927
0.000931691
0.0026674
0.00755877
0.0211016
0.057664
0.15311
0.392215
0.963306
2.25733
5.02979
10.6346
21.3058
40.4347
72.7062
123.964
200.616
308.669
452.326
632.878
847.712
1090.76
1352.97
1624.53
1895.61
2158.42
2406.66
2635.14
2844.5
3013.24
3236.21
1.67819e-08
5.73677e-08
1.6646e-07
4.95352e-07
1.4736e-06
4.36876e-06
1.2896e-05
3.787e-05
0.000110552
0.000320685
0.000924017
0.00264196
0.00747729
0.0208511
0.056929
0.151073
0.386924
0.950417
2.22842
4.96991
10.5185
21.0984
40.0925
72.1809
123.206
199.583
307.305
450.568
630.596
844.774
1086.9
1348.03
1618.28
1888.05
2149.38
2396.58
2623.87
2832.31
3000.39
3222.57
1.67963e-08
5.74074e-08
1.66504e-07
4.95216e-07
1.47224e-06
4.36154e-06
1.28639e-05
3.77413e-05
0.000110071
0.00031897
0.000918136
0.00262254
0.00741525
0.0206607
0.0563694
0.149513
0.382808
0.940299
2.2051
4.91957
10.4176
20.9108
39.7657
71.6497
122.389
198.404
305.665
448.421
627.818
841.386
1082.76
1343.28
1612.69
1882.04
2142.82
2389.6
2616.75
2825.04
2993.39
3215.78
2.5622e-13
7.95354e-13
2.31328e-12
6.91738e-12
2.07389e-11
6.2164e-11
1.86192e-10
5.57062e-10
1.66403e-09
4.95996e-09
1.47428e-08
4.36709e-08
1.28848e-07
3.78472e-07
1.10622e-06
3.21425e-06
9.26804e-06
2.64443e-05
7.43824e-05
0.000205338
0.000553792
0.00145294
0.00369414
0.00907456
0.0214866
0.0489495
0.107164
0.225247
0.454319
0.87899
1.63099
2.90234
4.95263
8.10684
12.7266
19.1803
27.6896
38.6919
50.441
73.5604
2.56479e-13
7.96269e-13
2.31639e-12
6.92815e-12
2.07777e-11
6.23095e-11
1.86737e-10
5.59035e-10
1.67096e-09
4.98382e-09
1.48234e-08
4.39384e-08
1.29718e-07
3.81239e-07
1.1148e-06
3.2401e-06
9.34346e-06
2.66564e-05
7.49672e-05
0.000206821
0.000557383
0.00146098
0.00371103
0.0091066
0.0215399
0.0490203
0.107213
0.225142
0.45373
0.877178
1.6266
2.89281
4.93456
8.07395
12.6729
19.0993
27.5738
38.5384
50.2725
73.409
2.57208e-13
7.98587e-13
2.32346e-12
6.95114e-12
2.08538e-11
6.25635e-11
1.87589e-10
5.61957e-10
1.68074e-09
5.01646e-09
1.49328e-08
4.42956e-08
1.30865e-07
3.84845e-07
1.12582e-06
3.27288e-06
9.43487e-06
2.69083e-05
7.56011e-05
0.000208336
0.000560633
0.00146702
0.00371963
0.00911103
0.0215118
0.0488743
0.106733
0.223842
0.450635
0.870473
1.6133
2.86814
4.89205
8.00484
12.5678
18.947
27.3675
38.2774
49.9804
73.1015
2.56894e-13
7.97644e-13
2.32086e-12
6.94415e-12
2.08367e-11
6.25306e-11
1.87582e-10
5.62276e-10
1.68321e-09
5.02913e-09
1.49862e-08
4.45045e-08
1.31622e-07
3.87426e-07
1.13416e-06
3.29805e-06
9.50885e-06
2.71004e-05
7.60299e-05
0.000209271
0.000561947
0.0014672
0.00371096
0.00906722
0.0213581
0.0484211
0.105547
0.221011
0.444407
0.857708
1.58887
2.82417
4.81778
7.88621
12.3897
18.6938
27.0287
37.8674
49.52
72.6285
2.57282e-13
7.9886e-13
2.32441e-12
6.95536e-12
2.08735e-11
6.26589e-11
1.88051e-10
5.64029e-10
1.68993e-09
5.05498e-09
1.5084e-08
4.48626e-08
1.32882e-07
3.91673e-07
1.1478e-06
3.33994e-06
9.6283e-06
2.74254e-05
7.68192e-05
0.000210943
0.000565127
0.00147011
0.00370534
0.0090215
0.021178
0.0478603
0.10403
0.217318
0.43616
0.840623
1.55587
2.7644
4.71617
7.72359
12.1448
18.346
26.5648
37.3221
48.9049
71.9948
2.56841e-13
7.97532e-13
2.32139e-12
6.95038e-12
2.0878e-11
6.27515e-11
1.88586e-10
5.66456e-10
1.69991e-09
5.09356e-09
1.52281e-08
4.53831e-08
1.34701e-07
3.9779e-07
1.16756e-06
3.40053e-06
9.80582e-06
2.78981e-05
7.80439e-05
0.00021351
0.000569873
0.00147669
0.00370412
0.00897589
0.0209742
0.0472006
0.102217
0.212866
0.426177
0.819929
1.51594
2.6923
4.59404
7.52886
11.8528
17.9324
26.038
36.6964
48.1997
71.2707
2.56789e-13
7.97436e-13
2.32182e-12
6.95352e-12
2.08933e-11
6.28331e-11
1.89072e-10
5.68973e-10
1.71133e-09
5.14045e-09
1.5409e-08
4.6049e-08
1.37067e-07
4.05882e-07
1.19419e-06
3.48404e-06
1.00534e-05
2.85885e-05
7.97754e-05
0.000217685
0.000577665
0.00148941
0.00371383
0.00894298
0.0207719
0.0464828
0.100166
0.207738
0.414582
0.795823
1.46942
2.6084
4.45222
7.30346
11.5162
17.464
25.4692
36.0108
47.4365
70.5031
2.58476e-13
8.02496e-13
2.33608e-12
6.99538e-12
2.10216e-11
6.3236e-11
1.90389e-10
5.73586e-10
1.72841e-09
5.20477e-09
1.56503e-08
4.69351e-08
1.4024e-07
4.1689e-07
1.231e-06
3.60138e-06
1.04087e-05
2.95896e-05
8.24022e-05
0.000223809
0.000591165
0.00151122
0.00374177
0.00893963
0.0205976
0.0457603
0.0979903
0.202165
0.401808
0.769
1.41742
2.51486
4.29528
7.05685
11.1521
16.9854
24.8797
35.3076
46.6684
69.7583
2.58131e-13
8.0124e-13
2.33256e-12
6.98943e-12
2.10288e-11
6.33426e-11
1.91048e-10
5.76712e-10
1.74255e-09
5.26563e-09
1.59035e-08
4.79412e-08
1.44057e-07
4.30837e-07
1.27935e-06
3.76123e-06
1.09097e-05
3.10458e-05
8.63013e-05
0.000233341
0.000611688
0.00155241
0.00380096
0.00900032
0.0205545
0.045274
0.0962087
0.197256
0.390279
0.744846
1.37106
2.43222
4.15722
6.84051
10.839
16.6018
24.4072
34.7581
46.0867
69.2147
2.56647e-13
7.96633e-13
2.32015e-12
6.95777e-12
2.09611e-11
6.32627e-11
1.9131e-10
5.79266e-10
1.75749e-09
5.33546e-09
1.62145e-08
4.92185e-08
1.49107e-07
4.49972e-07
1.34782e-06
4.00042e-06
1.16797e-05
3.32723e-05
9.21746e-05
0.000247706
0.000643839
0.00161662
0.00392101
0.00918065
0.0207761
0.0454425
0.0960484
0.196136
0.386874
0.73687
1.35456
2.40138
4.1041
6.75691
10.7598
16.5334
24.3595
34.7534
46.1474
69.3655
2.57149e-13
7.98315e-13
2.32588e-12
6.97523e-12
2.10251e-11
6.35301e-11
1.92588e-10
5.84939e-10
1.78326e-09
5.44149e-09
1.66684e-08
5.10121e-08
1.563e-07
4.77313e-07
1.45129e-06
4.37927e-06
1.2812e-05
3.65868e-05
0.000101356
0.000271507
0.000703466
0.00175914
0.00423901
0.00986064
0.0221824
0.0482999
0.101779
0.207364
0.408199
0.775856
1.42293
2.51648
4.29035
7.07887
11.2772
17.2653
25.3323
35.9657
47.5477
70.814
2.58073e-13
8.01347e-13
2.33504e-12
7.00331e-12
2.11139e-11
6.3839e-11
1.93845e-10
5.90515e-10
1.80987e-09
5.55683e-09
1.72029e-08
5.31797e-08
1.65766e-07
5.13941e-07
1.6112e-06
4.87654e-06
1.4573e-05
4.89442e-05
0.000209985
0.000863587
0.00262553
0.00585006
0.010725
0.01877
0.0342868
0.066361
0.1322
0.262525
0.509454
0.956824
1.73252
3.02803
5.11192
8.33583
13.0536
19.6319
28.3027
39.4764
51.3882
74.5011
2.58455e-13
8.02656e-13
2.34e-12
7.02478e-12
2.12027e-11
6.42077e-11
1.95332e-10
5.97112e-10
1.83984e-09
5.69341e-09
1.78342e-08
5.59435e-08
1.77958e-07
5.71379e-07
1.77145e-06
5.85285e-06
0.000194609
0.00242606
0.0117122
0.0319933
0.0579776
0.0773636
0.0872053
0.0953899
0.113641
0.159714
0.262355
0.467847
0.848389
1.51128
2.62701
4.41675
7.17656
11.2162
16.8681
24.4273
33.9932
45.8566
58.027
80.4056
2.57671e-13
8.0026e-13
2.33346e-12
7.00906e-12
2.11869e-11
6.43086e-11
1.96221e-10
6.03134e-10
1.86847e-09
5.84968e-09
1.85339e-08
5.94347e-08
1.93081e-07
6.5818e-07
1.84456e-06
0.000770926
0.0195929
0.0807424
0.172412
0.246677
0.278992
0.272827
0.264085
0.272849
0.322327
0.446915
0.696142
1.13793
1.87298
3.03569
4.83008
7.47649
11.2434
16.4212
23.2527
31.921
42.3142
54.5979
66.6109
87.2347
2.57363e-13
7.99256e-13
2.3299e-12
6.99724e-12
2.11762e-11
6.43394e-11
1.97203e-10
6.08395e-10
1.90223e-09
6.00949e-09
1.93735e-08
6.34006e-08
2.13529e-07
7.55192e-07
2.37757e-06
0.069737
0.280795
0.413976
0.463264
0.417109
0.365081
0.345083
0.375926
0.517807
0.839746
1.39692
2.23379
3.38385
4.87477
6.80738
9.37751
12.8814
17.6274
23.8775
31.7345
41.2087
51.9436
64.0144
75.2123
93.1584
7.41915e-14
7.29777e-13
2.3458e-12
7.01702e-12
2.11951e-11
6.43329e-11
1.98063e-10
6.12344e-10
1.93498e-09
6.15526e-09
2.02862e-08
6.74421e-08
2.40509e-07
8.60609e-07
3.4918e-06
0.92278
0.654143
0.468075
0.375433
0.299132
0.263329
0.289941
0.48742
1.06457
2.29819
4.46912
7.32995
10.4629
13.5317
16.4318
19.3928
22.8786
27.3924
33.3555
40.9462
50.1859
60.486
71.8398
81.9062
97.0137
7.15435e-14
7.17713e-13
2.33732e-12
7.00842e-12
2.118e-11
6.44262e-11
1.98602e-10
6.17518e-10
1.95783e-09
6.31001e-09
2.1006e-08
7.19531e-08
2.64104e-07
1.0103e-06
5.13739e-06
2.08378
0.128843
5.82296
24.2709
49.9523
62.2165
64.2691
62.6347
56.6453
50.0439
49.2655
51.8096
57.3409
65.6298
76.0213
85.3018
98.4541
2.57158e-13
7.98056e-13
2.32564e-12
6.98015e-12
2.11472e-11
6.4482e-11
1.98839e-10
6.21038e-10
1.97433e-09
6.42665e-09
2.15633e-08
7.55436e-08
2.81963e-07
1.13433e-06
6.00391e-06
2.11694
0.579202
16.1586
55.1201
77.5063
79.8203
76.8498
65.9813
53.4957
48.5326
50.0392
53.5663
60.1682
68.8391
78.9806
87.3157
98.511
2.56506e-13
7.96453e-13
2.32117e-12
6.96818e-12
2.11111e-11
6.43985e-11
1.98697e-10
6.21804e-10
1.98155e-09
6.48333e-09
2.18903e-08
7.75981e-08
2.93817e-07
1.22158e-06
6.66943e-06
2.25376
0.819488
20.3784
63.9903
78.3679
77.2233
69.8501
56.39
46.4453
45.9852
48.5739
53.6893
61.6222
70.6228
80.4232
87.8309
97.5758
2.56456e-13
7.96358e-13
2.32057e-12
6.9643e-12
2.10881e-11
6.43097e-11
1.98373e-10
6.20918e-10
1.97951e-09
6.48364e-09
2.19264e-08
7.79337e-08
2.96148e-07
1.24048e-06
6.77947e-06
2.18748
0.923816
21.9907
66.4111
78.3974
76.0074
65.7582
51.133
43.7335
44.7808
47.8603
53.6607
61.9955
70.8834
80.3549
87.2438
96.3442
2.56372e-13
7.96099e-13
2.31982e-12
6.96202e-12
2.10811e-11
6.42888e-11
1.9831e-10
6.20727e-10
1.97892e-09
6.48181e-09
2.19206e-08
7.79147e-08
2.96086e-07
1.24026e-06
6.77855e-06
2.18748
0.923805
21.9905
66.4105
78.3965
76.0065
65.7569
51.1313
43.7309
44.7772
47.8566
53.6567
61.9911
70.8787
80.3503
87.2397
96.341
2.56545e-13
7.96577e-13
2.32154e-12
6.96927e-12
2.11149e-11
6.44092e-11
1.98738e-10
6.21906e-10
1.98195e-09
6.48415e-09
2.18951e-08
7.76012e-08
2.93935e-07
1.22088e-06
6.66872e-06
2.25393
0.819456
20.378
63.9886
78.3652
77.2205
69.8471
56.387
46.4415
45.9817
48.5704
53.6857
61.6189
70.6204
80.422
87.8307
97.5766
2.56962e-13
7.97745e-13
2.32511e-12
6.97852e-12
2.11434e-11
6.4469e-11
1.98814e-10
6.20942e-10
1.97432e-09
6.42625e-09
2.15675e-08
7.55419e-08
2.82176e-07
1.13361e-06
6.00063e-06
2.11743
0.579187
16.158
55.1178
77.5007
79.8138
76.8429
65.9735
53.486
48.5241
50.0298
53.5578
60.1615
68.8357
78.982
87.3211
98.5206
2.57161e-13
7.98384e-13
2.32723e-12
6.98445e-12
2.11749e-11
6.44479e-11
1.98671e-10
6.17661e-10
1.95835e-09
6.31123e-09
2.10134e-08
7.19604e-08
2.6438e-07
1.00927e-06
5.13805e-06
2.08352
0.128836
5.82281
24.2701
49.9494
62.2103
64.2621
62.6284
56.6423
50.0417
49.262
51.806
57.3362
65.6228
76.0117
85.2887
98.439
2.56616e-13
7.96757e-13
2.32281e-12
6.97399e-12
2.1142e-11
6.42433e-11
1.97863e-10
6.11839e-10
1.9336e-09
6.15179e-09
2.02793e-08
6.74125e-08
2.40769e-07
8.60008e-07
3.48464e-06
0.923211
0.654175
0.468136
0.375531
0.299267
0.263412
0.289995
0.487483
1.0647
2.2985
4.4696
7.3301
10.4618
13.5289
16.4277
19.3884
22.8747
27.3895
33.3538
40.9448
50.1828
60.4779
71.8247
81.8813
96.977
2.57277e-13
7.98898e-13
2.32852e-12
6.99316e-12
2.11676e-11
6.43057e-11
1.97129e-10
6.0808e-10
1.90171e-09
6.00677e-09
1.9372e-08
6.33909e-08
2.13444e-07
7.5812e-07
2.36795e-06
0.0698628
0.280777
0.413777
0.463351
0.417167
0.365179
0.345148
0.375977
0.517868
0.839856
1.39707
2.23394
3.384
4.87494
6.80762
9.37788
12.882
17.6283
23.8789
31.7362
41.2105
51.9438
64.0121
75.2031
93.137
2.57624e-13
8.00122e-13
2.33309e-12
7.00806e-12
2.11833e-11
6.43007e-11
1.96201e-10
6.03073e-10
1.86837e-09
5.84965e-09
1.85324e-08
5.9466e-08
1.92827e-07
6.62437e-07
1.83754e-06
0.000771766
0.0196001
0.0806657
0.172465
0.246728
0.279047
0.272875
0.264093
0.272837
0.322295
0.446853
0.696036
1.13777
1.87274
3.03541
4.82982
7.47643
11.2439
16.4229
23.2563
31.9267
42.3205
54.6036
66.6093
87.2156
2.58429e-13
8.02592e-13
2.33972e-12
7.0248e-12
2.12015e-11
6.4209e-11
1.95318e-10
5.97191e-10
1.83996e-09
5.6948e-09
1.78369e-08
5.59762e-08
1.77867e-07
5.71876e-07
1.77914e-06
5.83674e-06
0.000194841
0.00242677
0.0117142
0.0319898
0.0579464
0.0773551
0.0872521
0.0954276
0.11366
0.159703
0.262303
0.467739
0.848212
1.51102
2.62665
4.41628
7.176
11.2156
16.8676
24.4271
33.9922
45.8557
58.0224
80.3949
2.58091e-13
8.01411e-13
2.33527e-12
7.00383e-12
2.11164e-11
6.38492e-11
1.93889e-10
5.90662e-10
1.81042e-09
5.55855e-09
1.721e-08
5.31951e-08
1.6591e-07
5.13797e-07
1.61319e-06
4.88246e-06
1.45842e-05
4.89406e-05
0.000210226
0.000864705
0.00262732
0.00585192
0.0107298
0.0187769
0.0342873
0.066345
0.132153
0.262425
0.509277
0.956548
1.73212
3.02748
5.11114
8.33467
13.0518
19.6293
28.2986
39.4724
51.3828
74.4967
2.57142e-13
7.98286e-13
2.32583e-12
6.97517e-12
2.10262e-11
6.35342e-11
1.9261e-10
5.84993e-10
1.7835e-09
5.44213e-09
1.6672e-08
5.10201e-08
1.56372e-07
4.77488e-07
1.45144e-06
4.38076e-06
1.28161e-05
3.65957e-05
0.000101376
0.000271547
0.000703526
0.00175899
0.00423883
0.00985776
0.0221761
0.0482822
0.101736
0.207271
0.408008
0.775493
1.42227
2.51539
4.28858
7.07627
11.2736
17.2609
25.3271
35.962
47.5446
70.8146
2.56699e-13
7.96808e-13
2.32062e-12
6.95925e-12
2.09669e-11
6.32769e-11
1.91368e-10
5.79422e-10
1.75796e-09
5.33681e-09
1.62185e-08
4.92307e-08
1.49142e-07
4.50118e-07
1.34817e-06
4.0012e-06
1.16807e-05
3.32762e-05
9.21834e-05
0.000247728
0.000643786
0.0016172
0.00391773
0.00917905
0.0207735
0.0454341
0.096026
0.196086
0.386771
0.736679
1.35422
2.4008
4.10317
6.75548
10.7578
16.5311
24.3571
34.7514
46.1473
69.367
2.58198e-13
8.0147e-13
2.33336e-12
6.99129e-12
2.10345e-11
6.33619e-11
1.91091e-10
5.76839e-10
1.74295e-09
5.26696e-09
1.59081e-08
4.79566e-08
1.44106e-07
4.30984e-07
1.27979e-06
3.76244e-06
1.09126e-05
3.10517e-05
8.63082e-05
0.000233311
0.000611774
0.00155068
0.00380065
0.00899834
0.0205457
0.0452579
0.0961779
0.197199
0.390176
0.744664
1.37075
2.43176
4.15656
6.8396
10.8381
16.6006
24.4061
34.759
46.088
69.2188
2.58671e-13
8.03104e-13
2.33786e-12
7.00136e-12
2.10393e-11
6.32892e-11
1.90559e-10
5.74107e-10
1.73001e-09
5.20966e-09
1.56652e-08
4.69806e-08
1.40376e-07
4.1729e-07
1.23215e-06
3.60454e-06
1.04172e-05
2.9612e-05
8.24482e-05
0.000224007
0.000590962
0.00151267
0.00374317
0.00894064
0.0206014
0.045766
0.0980009
0.202182
0.401834
0.769027
1.41742
2.51479
4.29507
7.05644
11.1515
16.9853
24.8801
35.3098
46.6722
69.7614
2.56783e-13
7.97419e-13
2.32183e-12
6.95392e-12
2.08946e-11
6.2844e-11
1.89125e-10
5.69183e-10
1.71208e-09
5.1429e-09
1.54169e-08
4.60741e-08
1.37146e-07
4.06129e-07
1.19494e-06
3.48622e-06
1.00598e-05
2.86029e-05
7.98389e-05
0.000217663
0.000578195
0.00148993
0.00371472
0.00894552
0.0207765
0.0464911
0.10018
0.207758
0.414607
0.795846
1.46942
2.60834
4.45203
7.30309
11.5156
17.4634
25.4688
36.0112
47.4376
70.5063
2.5699e-13
7.97996e-13
2.32258e-12
6.95348e-12
2.08854e-11
6.27628e-11
1.88603e-10
5.66474e-10
1.69991e-09
5.09368e-09
1.52292e-08
4.53883e-08
1.34721e-07
3.97859e-07
1.16777e-06
3.40125e-06
9.80695e-06
2.79072e-05
7.80419e-05
0.000213547
0.000569928
0.00147674
0.00370437
0.00897626
0.0209752
0.047202
0.102218
0.212869
0.426187
0.819957
1.516
2.69239
4.59416
7.52893
11.8527
17.9319
26.037
36.6952
48.198
71.2686
2.57144e-13
7.9844e-13
2.32326e-12
6.95207e-12
2.08657e-11
6.26394e-11
1.87997e-10
5.63901e-10
1.68969e-09
5.05466e-09
1.50838e-08
4.48638e-08
1.32887e-07
3.91688e-07
1.14784e-06
3.3399e-06
9.62926e-06
2.74221e-05
7.68089e-05
0.000210908
0.000564877
0.00146989
0.00370465
0.00901964
0.0211735
0.0478512
0.104014
0.217289
0.436109
0.840538
1.55573
2.7642
4.71589
7.72317
12.1442
18.345
26.5635
37.321
48.9042
71.9952
2.56719e-13
7.97117e-13
2.31952e-12
6.94093e-12
2.08293e-11
6.25158e-11
1.87553e-10
5.62243e-10
1.68333e-09
5.0292e-09
1.49867e-08
4.45055e-08
1.31623e-07
3.87427e-07
1.13417e-06
3.29805e-06
9.50617e-06
2.70947e-05
7.60425e-05
0.000209238
0.00056192
0.00146701
0.00371053
0.00906645
0.0213563
0.0484162
0.105533
0.220976
0.444322
0.857517
1.58848
2.82343
4.81655
7.88444
12.3876
18.6922
27.0292
37.8723
49.5311
72.6464
2.57213e-13
7.98606e-13
2.32354e-12
6.95138e-12
2.08542e-11
6.25643e-11
1.87595e-10
5.61938e-10
1.68079e-09
5.01683e-09
1.49331e-08
4.42973e-08
1.3087e-07
3.84859e-07
1.12586e-06
3.27283e-06
9.43666e-06
2.69083e-05
7.56069e-05
0.000208324
0.00056055
0.00146691
0.00371927
0.00910988
0.0215086
0.0488662
0.106714
0.223801
0.450556
0.87033
1.61306
2.86778
4.89157
8.00428
12.5673
18.9467
27.3676
38.2781
49.9817
73.1024
2.56306e-13
7.95732e-13
2.31483e-12