/*--------------------------------*- C++ -*----------------------------------*\
| =========                 |                                                 |
| \\      /  F ield         | OpenFOAM: The Open Source CFD Toolbox           |
|  \\    /   O peration     | Version:  2412                                  |
|   \\  /    A nd           | Website:  www.openfoam.com                      |
|    \\/     M anipulation  |                                                 |
\*---------------------------------------------------------------------------*/
FoamFile
{
    version     2.0;
    format      ascii;
    arch        "LSB;label=32;scalar=64";
    class       volScalarField;
    location    "5";
    object      scr5;
}
// * * * * * * * * * * * * * * * * * * * * * * * * * * * * * * * * * * * * * //

dimensions      [0 1 -1 0 0 0 0];

internalField   nonuniform List<scalar> 
47360
(
2.77788e-08
9.27877e-08
2.69371e-07
8.02564e-07
2.39249e-06
7.11526e-06
2.1094e-05
6.22953e-05
0.000183158
0.000535956
0.00156074
0.00452027
0.0129931
0.0369003
0.102854
0.279159
0.73199
1.84142
4.41974
10.0802
21.7872
44.5554
86.1516
157.497
272.378
446.074
692.842
1022.64
1437.91
1932.02
2489.21
3087.81
3703.45
4314.1
4900.4
5449.85
5949.79
6401.04
6760.98
7216.7
2.77142e-08
9.25902e-08
2.68896e-07
8.0146e-07
2.39023e-06
7.11207e-06
2.10971e-05
6.23471e-05
0.000183448
0.000537232
0.00156577
0.00453876
0.0130573
0.0371108
0.103508
0.281077
0.73726
1.85497
4.45187
10.1513
21.9345
44.8351
86.6491
158.32
273.661
447.945
695.457
1026.07
1442.33
1937.37
2495.61
3095.07
3711.63
4322.68
4909.45
5458.61
5958.28
6409.3
6768.2
7223.05
2.7754e-08
9.27333e-08
2.69374e-07
8.03136e-07
2.39611e-06
7.13255e-06
2.1168e-05
6.2592e-05
0.000184292
0.000540122
0.00157555
0.00457131
0.0131631
0.0374432
0.104508
0.283922
0.744857
1.87377
4.49535
10.2428
22.1119
45.1559
87.174
159.114
274.777
449.408
697.29
1028.29
1445.07
1940.74
2500.03
3100.62
3718.87
4331.32
4920.1
5470.42
5971.68
6423.69
6783.44
7239.86
2.77643e-08
9.27793e-08
2.69579e-07
8.04049e-07
2.40011e-06
7.14925e-06
2.12349e-05
6.28506e-05
0.000185259
0.000543636
0.00158796
0.00461389
0.0133044
0.0378929
0.105869
0.287797
0.755159
1.89914
4.55278
10.363
22.3396
45.5493
87.8077
160.025
275.973
450.846
698.93
1030.1
1447.21
1943.45
2503.87
3106.07
3726.61
4341.49
4933.1
5485.8
5989.65
6443.32
6804.74
7264.68
2.77664e-08
9.27923e-08
2.6966e-07
8.04588e-07
2.40309e-06
7.16442e-06
2.13054e-05
6.31462e-05
0.000186424
0.000548017
0.00160381
0.00466927
0.0134906
0.0384921
0.107699
0.293053
0.769236
1.93402
4.63236
10.529
22.6582
46.1048
88.6807
161.302
277.703
452.961
701.362
1032.8
1450.35
1947.39
2509.34
3113.76
3737.41
4355.79
4951.34
5507.67
6015.25
6471.49
6835.52
7301.7
2.77287e-08
9.26679e-08
2.69339e-07
8.03879e-07
2.40245e-06
7.1698e-06
2.13493e-05
6.3378e-05
0.000187478
0.000552387
0.00162081
0.00473229
0.0137131
0.0392395
0.110068
0.300078
0.788583
1.98317
4.74698
10.7739
23.1375
46.9629
90.0959
163.43
280.655
456.828
706.201
1038.66
1457.38
1955.85
2519.88
3127.1
3754.4
4376.87
4977.03
5537.64
6049.7
6509.34
6876.7
7352.85
2.76433e-08
9.23941e-08
2.6863e-07
8.02135e-07
2.39892e-06
7.16568e-06
2.13654e-05
6.35484e-05
0.000188457
0.000557007
0.00164043
0.00480968
0.0139999
0.0402419
0.113349
0.310082
0.816812
2.05647
4.92158
11.1553
23.9031
48.3775
92.5107
167.244
286.256
464.506
716.141
1050.97
1472.3
1973.76
2541.21
3152.11
3783.5
4409.92
5014.11
5578.36
6094.67
6558.03
6929.9
7422.91
2.77077e-08
9.26075e-08
2.69279e-07
8.04229e-07
2.40637e-06
7.19435e-06
2.14805e-05
6.40147e-05
0.000190354
0.000564591
0.00167019
0.00492284
0.0144148
0.0416941
0.118151
0.324942
0.85949
2.16947
5.19645
11.7711
25.1692
50.7766
96.6992
174.015
296.375
478.548
734.382
1073.24
1497.86
2001.56
2569.99
3180.63
3811.16
4436.55
5040.58
5605.63
6125.15
6592.07
6980.02
7492.28
2.76733e-08
9.24806e-08
2.68955e-07
8.038e-07
2.40763e-06
7.20691e-06
2.15573e-05
6.44027e-05
0.000192186
0.000572709
0.00170457
0.00506207
0.0149523
0.0436654
0.124939
0.346726
0.924292
2.34673
5.63813
12.7709
27.2304
54.634
103.274
184.275
311.139
498.23
758.586
1100.79
1526.95
2030
2595.72
3202.22
3827.39
4447.21
5046.75
5609.12
6128.65
6607.91
7012.35
7522.9
2.76024e-08
9.22402e-08
2.68367e-07
8.02502e-07
2.40599e-06
7.21313e-06
2.16296e-05
6.48378e-05
0.000194428
0.000583033
0.00174961
0.00525038
0.0156987
0.0465006
0.135011
0.38037
1.02748
2.62907
6.32483
14.265
30.1781
59.982
112.344
198.789
333.338
531.052
805.523
1165.53
1612.04
2135.58
2718.65
3335.94
3962.34
4573.12
5152.76
5683.63
6184.53
6638.74
7009.17
7459.17
2.75755e-08
9.21692e-08
2.68279e-07
8.0252e-07
2.40787e-06
7.22857e-06
2.17385e-05
6.54179e-05
0.000197418
0.000596549
0.00181044
0.00550831
0.0167532
0.050638
0.150459
0.434301
1.18483
3.04367
7.33476
16.6035
35.5165
72.1201
139.129
254.343
438.285
709.249
1078.85
1546.89
2095.77
2693.23
3304.11
3897.28
4446.72
4936.08
5383.05
5793.99
6182.62
6519.34
6794.86
7101.65
2.76003e-08
9.22759e-08
2.68643e-07
8.04102e-07
2.41564e-06
7.26627e-06
2.19254e-05
6.62691e-05
0.000201522
0.000614154
0.00189263
0.00585095
0.0182507
0.0566242
0.17527
0.510374
1.42722
3.89449
11.7188
36.359
98.6777
224.27
440.086
764.533
1192.26
1699.51
2253.72
2818.69
3354.38
3823.19
4208.37
4518.4
4789.69
5054.89
5302
5527.49
5725.34
5894.19
6022.27
6139.81
2.76892e-08
9.25865e-08
2.69471e-07
8.07071e-07
2.42679e-06
7.31973e-06
2.21557e-05
6.7343e-05
0.000206358
0.000635877
0.00199439
0.0062981
0.0202705
0.0659938
0.207115
0.610643
3.83642
32.8095
147.728
396.851
774.266
1249.89
1789.02
2332.39
2832.32
3263.69
3588.56
3806.49
3972.35
4110.87
4211.92
4286.9
4330.74
4390.85
4440.02
4483.81
4531.5
4596.71
4671.27
4840.17
2.78773e-08
9.32288e-08
2.71182e-07
8.12834e-07
2.44337e-06
7.38495e-06
2.2383e-05
6.85194e-05
0.000211187
0.000661147
0.00210858
0.00687217
0.0228715
0.0805425
0.23536
7.05919
133.962
555.606
1179.72
1785.76
2309.24
2758.3
3042.94
3177.97
3306.78
3424.94
3426.86
3363.23
3290.32
3210.8
3114.46
3024.25
3009.05
3054.24
3143.19
3284.06
3466.32
3686.39
3897.07
4265.81
2.78083e-08
9.29197e-08
2.70236e-07
8.09101e-07
2.43509e-06
7.36368e-06
2.2418e-05
6.89826e-05
0.00021489
0.000682699
0.00223232
0.00750677
0.0263832
0.100344
0.314043
360.8
1399.76
2101.2
2372.96
2487.04
2607.98
2723.69
2590.95
2471.02
2310.71
2065.98
1859.98
1824.99
1857.01
1959.12
2121.3
2322.38
2542.15
2754.1
2953.03
3153.95
3358.47
3581.15
3779.24
4118.18
2.74488e-08
9.16817e-08
2.66885e-07
7.98575e-07
2.41246e-06
7.29312e-06
2.23916e-05
6.90921e-05
0.000218595
0.000702971
0.00237074
0.00819706
0.0313796
0.12185
0.453205
3779.66
2817.5
2045.87
1750.41
1501.05
1202.13
749.194
321.713
259.264
338.313
586.5
1023.82
1539.11
2000.33
2257.08
2403.01
2534.23
2677.57
2843.46
3022.98
3215.71
3409.35
3623.15
3802.82
4105.22
2.73117e-08
9.12589e-08
2.65767e-07
7.95928e-07
2.40723e-06
7.30013e-06
2.24794e-05
6.98739e-05
0.000222727
0.000728517
0.00249685
0.00902644
0.0360333
0.14766
0.621726
7152.81
1.09465
107.415
590.988
1516.87
2598.5
3377.58
3615.85
3744.97
3795.68
3782.71
3715.77
3643.25
3643.6
3754.32
3867.58
4079.71
2.74256e-08
9.16436e-08
2.66758e-07
7.9912e-07
2.41397e-06
7.33873e-06
2.25836e-05
7.06268e-05
0.000225816
0.000748663
0.00259911
0.00971823
0.0395521
0.171219
0.710019
6767.32
3.54808
250.008
1299.15
2882.65
3587.97
3798.31
3931.93
3923.27
3773.34
3575.26
3399.96
3372.4
3474.56
3618.68
3740.97
3949.2
2.72633e-08
9.11252e-08
2.65177e-07
7.94157e-07
2.39872e-06
7.29792e-06
2.24761e-05
7.05339e-05
0.000226321
0.000757699
0.002653
0.010161
0.0420231
0.186784
0.775239
6661.49
4.24169
288.764
1533.09
3116.55
3402.01
3489.26
3498.57
3375.6
3168.58
3013.05
3003.29
3126.36
3264.44
3462.63
3591.55
3800.49
2.74646e-08
9.17567e-08
2.66757e-07
7.98407e-07
2.40934e-06
7.32468e-06
2.2538e-05
7.07067e-05
0.000226877
0.000760242
0.00266759
0.0102569
0.042262
0.188033
0.764825
6101.15
4.48923
304.068
1644.66
3180.62
3328.51
3336.27
3230.08
3018.78
2793.24
2738.29
2846.79
2990.34
3146.05
3362.28
3488.02
3696.88
2.74638e-08
9.1754e-08
2.66749e-07
7.98383e-07
2.40926e-06
7.32444e-06
2.25372e-05
7.07041e-05
0.000226868
0.00076021
0.00266747
0.0102564
0.0422596
0.188021
0.764773
6101.09
4.48879
304.06
1644.68
3180.69
3328.58
3336.34
3230.14
3018.85
2793.3
2738.33
2846.83
2990.38
3146.08
3362.3
3488.02
3696.87
2.72613e-08
9.11184e-08
2.6516e-07
7.94091e-07
2.3986e-06
7.29767e-06
2.24751e-05
7.05311e-05
0.000226313
0.000757668
0.00265291
0.0101599
0.0420268
0.186698
0.775045
6661.3
4.24026
288.739
1533.13
3116.76
3402.25
3489.5
3498.79
3375.78
3168.7
3013.12
3003.31
3126.37
3264.43
3462.57
3591.43
3800.33
2.74256e-08
9.16436e-08
2.66759e-07
7.99132e-07
2.41397e-06
7.33869e-06
2.25846e-05
7.06303e-05
0.000225837
0.00074873
0.0025996
0.00971815
0.0395726
0.171108
0.709759
6767.12
3.54683
249.987
1299.22
2882.95
3588.29
3798.63
3932.22
3923.52
3773.55
3575.48
3400.21
3372.58
3474.74
3618.9
3741.19
3949.34
2.73214e-08
9.12911e-08
2.65871e-07
7.96252e-07
2.40818e-06
7.30291e-06
2.24869e-05
6.98929e-05
0.00022278
0.000728675
0.0024975
0.00902749
0.036059
0.147567
0.621559
7152.58
1.09455
107.424
591.095
1517.22
2599.06
3378.04
3616.22
3745.34
3796.05
3783.07
3716.1
3643.59
3643.98
3754.72
3868
4080.1
2.74482e-08
9.16812e-08
2.66878e-07
7.98541e-07
2.41254e-06
7.29369e-06
2.23934e-05
6.91015e-05
0.000218633
0.0007031
0.00237149
0.00819675
0.0314182
0.121739
0.453043
3779.45
2817.34
2045.76
1750.31
1500.98
1202.34
749.763
322.149
259.394
338.234
586.029
1023.15
1538.63
2000.3
2257.37
2403.38
2534.62
2677.97
2843.91
3023.5
3216.31
3410
3623.82
3803.48
4105.85
2.77905e-08
9.28602e-08
2.70066e-07
8.08613e-07
2.43358e-06
7.35849e-06
2.24065e-05
6.89528e-05
0.000214838
0.000682572
0.00223254
0.00750497
0.0264091
0.100279
0.313917
360.795
1399.53
2100.92
2372.73
2486.77
2607.56
2723.43
2590.9
2471.07
2311.05
2066.61
1860.6
1825.64
1857.69
1959.82
2121.97
2322.98
2542.74
2754.78
2953.8
3154.8
3359.34
3582.01
3780.04
4118.89
2.78733e-08
9.32162e-08
2.71145e-07
8.1269e-07
2.44311e-06
7.38475e-06
2.23809e-05
6.85151e-05
0.000211176
0.00066117
0.00210881
0.00687221
0.0228844
0.080527
0.235257
7.05792
133.937
555.449
1179.49
1785.43
2308.84
2757.79
3042.51
3177.55
3306.17
3424.17
3426.17
3362.61
3289.87
3210.64
3114.69
3024.96
3010.17
3055.43
3144.46
3285.39
3467.66
3687.64
3898.17
4266.72
2.76931e-08
9.26018e-08
2.69514e-07
8.07238e-07
2.42726e-06
7.3214e-06
2.21603e-05
6.7361e-05
0.000206406
0.000636068
0.001995
0.00629979
0.0202793
0.0659908
0.207165
0.610471
3.83488
32.7966
147.691
396.763
774.156
1249.73
1788.77
2332.04
2831.88
3263.1
3587.87
3805.68
3971.32
4109.6
4210.47
4285.55
4329.59
4390.06
4439.64
4484.08
4532.5
4598.41
4673.33
4842.55
2.75825e-08
9.22165e-08
2.68476e-07
8.036e-07
2.41417e-06
7.26193e-06
2.19138e-05
6.6239e-05
0.000201448
0.000613988
0.00189232
0.00585025
0.0182528
0.0566164
0.175237
0.510401
1.42694
3.893
11.7136
36.3406
98.6344
224.188
439.947
764.317
1191.97
1699.12
2253.2
2817.98
3353.47
3822.08
4207.09
4516.88
4787.83
5052.72
5299.7
5525.31
5723.58
5893.1
6021.96
6141.25
2.75732e-08
9.21613e-08
2.68261e-07
8.0246e-07
2.40758e-06
7.22754e-06
2.17358e-05
6.54082e-05
0.00019739
0.000596452
0.00181018
0.00550745
0.0167515
0.0506343
0.150427
0.434148
1.18452
3.0427
7.33155
16.5944
35.4941
72.0708
139.03
254.161
437.983
708.788
1078.19
1546.02
2094.67
2691.91
3302.55
3895.45
4444.59
4933.64
5380.26
5790.86
6179.31
6516.19
6791.87
7100.04
2.76131e-08
9.2279e-08
2.68468e-07
8.02795e-07
2.40705e-06
7.21612e-06
2.16386e-05
6.48626e-05
0.000194498
0.000583226
0.00175013
0.00525163
0.0157013
0.0465049
0.135012
0.38033
1.02719
2.62801
6.32196
14.2577
30.1605
59.943
112.265
198.643
333.087
530.652
804.928
1164.7
1610.94
2134.19
2716.96
3333.93
3960.01
4570.43
5149.71
5680.28
6180.92
6635.11
7005.5
7456.08
2.76746e-08
9.24857e-08
2.68977e-07
8.03878e-07
2.40794e-06
7.20815e-06
2.15613e-05
6.44168e-05
0.000192235
0.000572871
0.00170507
0.00506344
0.0149556
0.0436716
0.124945
0.346709
0.924151
2.34611
5.63594
12.7646
27.2149
54.6
103.206
184.151
310.925
497.888
758.073
1100.07
1525.96
2028.78
2594.29
3200.48
3825.41
4444.97
5044.24
5606.35
6125.65
6604.82
7009.19
7519.97
2.77028e-08
9.25914e-08
2.69228e-07
8.04101e-07
2.40607e-06
7.19343e-06
2.14785e-05
6.40107e-05
0.00019035
0.000564606
0.0016703
0.00492323
0.0144158
0.0416954
0.118148
0.324908
0.859329
2.1689
5.1947
11.7663
25.1574
50.7499
96.6442
173.912
296.196
478.262
733.953
1072.64
1497.08
2000.57
2568.77
3179.23
3809.58
4434.82
5038.7
5603.63
6123.04
6589.89
6977.79
7490.13
2.76369e-08
9.23717e-08
2.68565e-07
8.01961e-07
2.39836e-06
7.16444e-06
2.13628e-05
6.35384e-05
0.000188431
0.000556939
0.00164026
0.00480929
0.0139989
0.0402387
0.113336
0.310033
0.816637
2.0559
4.91994
11.1511
23.8929
48.3552
92.4663
167.161
286.114
464.268
715.791
1050.5
1471.68
1972.96
2540.22
3151.03
3782.31
4408.64
5012.76
5576.98
6093.27
6556.66
6928.55
7421.66
2.77323e-08
9.26797e-08
2.69374e-07
8.04004e-07
2.4028e-06
7.17028e-06
2.13505e-05
6.33838e-05
0.000187494
0.000552436
0.00162095
0.00473265
0.0137139
0.0392406
0.110066
0.300057
0.788477
1.98277
4.74575
10.7705
23.1293
46.9454
90.0562
163.359
280.546
456.648
705.936
1038.28
1456.86
1955.21
2519.15
3126.25
3753.48
4375.88
4976.04
5536.67
6048.77
6508.48
6875.9
7352.2
2.77652e-08
9.27883e-08
2.69647e-07
8.04528e-07
2.40305e-06
7.16458e-06
2.13053e-05
6.31462e-05
0.000186424
0.00054802
0.00160383
0.00466934
0.0134907
0.0384919
0.107696
0.293032
0.769145
1.9337
4.63135
10.5266
22.6509
46.0883
88.6573
161.252
277.602
452.809
701.134
1032.48
1449.94
1946.89
2508.74
3113.1
3736.69
4355.05
4950.59
5506.91
6014.5
6470.78
6834.85
7301.17
2.77597e-08
9.27639e-08
2.69541e-07
8.03952e-07
2.39979e-06
7.14826e-06
2.1232e-05
6.2842e-05
0.000185234
0.000543564
0.00158775
0.00461329
0.0133026
0.0378873
0.105852
0.287745
0.755007
1.8987
4.5518
10.3598
22.3335
45.5389
87.7807
159.978
275.897
450.727
698.754
1029.86
1446.89
1943.06
2503.42
3105.57
3726.07
4340.93
4932.53
5485.25
5989.11
6442.81
6804.27
7264.31
2.77524e-08
9.27282e-08
2.69359e-07
8.03089e-07
2.39598e-06
7.13222e-06
2.11672e-05
6.25896e-05
0.000184285
0.000540104
0.0015755
0.00457116
0.0131626
0.0374411
0.1045
0.283894
0.744759
1.87354
4.49436
10.2408
22.1084
45.145
87.1554
159.08
274.718
449.314
697.152
1028.1
1444.83
1940.45
2499.7
3100.26
3718.49
4330.93
4919.7
5470.02
5971.26
6423.27
6783
7239.41
2.77132e-08
9.25871e-08
2.68886e-07
8.01432e-07
2.39014e-06
7.11185e-06
2.10966e-05
6.23458e-05
0.000183445
0.000537223
0.00156574
0.00453865
0.0130569
0.0371097
0.103506
0.281066
0.737222
1.8548
4.45159
10.1506
21.9315
44.8295
86.6374
158.297
273.622
447.883
695.365
1025.94
1442.17
1937.18
2495.39
3094.83
3711.38
4322.42
4909.19
5458.36
5958.02
6409.05
6767.96
7222.83
2.7779e-08
9.27885e-08
2.69375e-07
8.02578e-07
2.39252e-06
7.11535e-06
2.10942e-05
6.2296e-05
0.00018316
0.000535963
0.00156076
0.00452035
0.0129933
0.0368999
0.102852
0.279153
0.731974
1.84138
4.4196
10.0798
21.7863
44.5534
86.1476
157.489
272.365
446.053
692.809
1022.59
1437.85
1931.95
2489.12
3087.71
3703.33
4313.96
4900.25
5449.66
5949.58
6400.81
6760.77
7216.53
8.15113e-13
2.46084e-12
7.15768e-12
2.14034e-11
6.41637e-11
1.92315e-10
5.7607e-10
1.72404e-09
5.15263e-09
1.53708e-08
4.57422e-08
1.35727e-07
4.0138e-07
1.18252e-06
3.46897e-06
1.01218e-05
2.93185e-05
8.40323e-05
0.000237352
0.000657555
0.00177814
0.00467249
0.0118857
0.029176
0.0689488
0.156573
0.341233
0.71298
1.42734
2.7362
5.02109
8.8173
14.814
23.8107
36.6058
53.8615
75.7219
102.561
129.924
178.151
8.15536e-13
2.46245e-12
7.16292e-12
2.14205e-11
6.42259e-11
1.92561e-10
5.77019e-10
1.72754e-09
5.16522e-09
1.54153e-08
4.58951e-08
1.36235e-07
4.03028e-07
1.18768e-06
3.48476e-06
1.01691e-05
2.94538e-05
8.44079e-05
0.000238331
0.000659922
0.00178333
0.00468245
0.0119004
0.0291847
0.0689043
0.15633
0.340417
0.710752
1.42201
2.72466
4.99822
8.7751
14.742
23.6941
36.4301
53.6089
75.3796
102.142
129.468
177.725
8.13781e-13
2.45726e-12
7.14844e-12
2.138e-11
6.41143e-11
1.92281e-10
5.76429e-10
1.72662e-09
5.16534e-09
1.54246e-08
4.59505e-08
1.36485e-07
4.04001e-07
1.1912e-06
3.49646e-06
1.02058e-05
2.95548e-05
8.46814e-05
0.000238986
0.000661159
0.00178476
0.00468037
0.0118798
0.0290957
0.0686068
0.155471
0.338197
0.705514
1.41065
2.70181
4.9558
8.70147
14.6243
23.5178
36.189
53.2997
75.0174
101.78
129.157
177.57
8.13631e-13
2.45696e-12
7.14862e-12
2.13843e-11
6.41422e-11
1.92421e-10
5.7708e-10
1.72956e-09
5.17771e-09
1.54739e-08
4.61364e-08
1.37154e-07
4.06303e-07
1.1988e-06
3.52041e-06
1.02765e-05
2.9759e-05
8.51835e-05
0.000240138
0.000663431
0.00178762
0.00467843
0.0118494
0.02896
0.0681509
0.154159
0.334831
0.697624
1.39363
2.66766
4.89198
8.5897
14.441
23.2347
35.7787
52.7377
74.2946
100.962
128.275
176.734
8.1501e-13
2.46104e-12
7.16101e-12
2.14308e-11
6.43204e-11
1.93053e-10
5.79235e-10
1.73697e-09
5.20372e-09
1.55656e-08
4.6457e-08
1.38249e-07
4.09942e-07
1.21051e-06
3.55678e-06
1.03849e-05
3.00623e-05
8.59968e-05
0.00024204
0.000667424
0.00179393
0.00468207
0.0118246
0.0288152
0.06762
0.152568
0.330632
0.687594
1.37161
2.62288
4.80722
8.43989
14.1938
22.8529
35.2281
51.9943
73.3872
99.9663
127.245
175.854
8.1674e-13
2.46616e-12
7.17697e-12
2.14881e-11
6.45299e-11
1.93811e-10
5.8187e-10
1.74588e-09
5.23416e-09
1.56714e-08
4.68289e-08
1.39544e-07
4.14354e-07
1.22506e-06
3.60293e-06
1.05242e-05
3.04574e-05
8.70438e-05
0.000244464
0.000672371
0.00180128
0.00468299
0.011779
0.0285885
0.0668325
0.15027
0.324688
0.673619
1.34139
2.56228
4.69415
8.24272
13.872
22.3608
34.5225
51.0445
72.2742
98.7101
125.922
174.662
8.16393e-13
2.46535e-12
7.17532e-12
2.14813e-11
6.45308e-11
1.93988e-10
5.83159e-10
1.75218e-09
5.26041e-09
1.57728e-08
4.72097e-08
1.40937e-07
4.19317e-07
1.24206e-06
3.65868e-06
1.0697e-05
3.09621e-05
8.83808e-05
0.0002478
0.000678919
0.00181193
0.00468894
0.0117349
0.0283395
0.0659354
0.147615
0.317792
0.657436
1.30654
2.49278
4.56515
8.01901
13.509
21.8088
33.737
50.0338
71.1069
97.4088
124.589
173.538
8.18224e-13
2.4707e-12
7.18964e-12
2.15223e-11
6.46522e-11
1.94428e-10
5.85151e-10
1.76123e-09
5.29905e-09
1.59261e-08
4.77881e-08
1.43036e-07
4.26705e-07
1.26725e-06
3.74137e-06
1.0956e-05
3.17275e-05
9.04807e-05
0.000253042
0.0006905
0.00183313
0.00471591
0.0117227
0.0281232
0.0650245
0.144762
0.310208
0.639451
1.2676
2.41483
4.42027
7.76869
13.1057
21.2011
32.8798
48.9967
69.8902
96.0715
123.254
172.443
8.17008e-13
2.46668e-12
7.18001e-12
2.1504e-11
6.46347e-11
1.94471e-10
5.85729e-10
1.7654e-09
5.32322e-09
1.60434e-08
4.83019e-08
1.45111e-07
4.34605e-07
1.29594e-06
3.84022e-06
1.12787e-05
3.2718e-05
9.32794e-05
0.000260204
0.000707225
0.00186446
0.00476192
0.0117519
0.027971
0.0641833
0.141937
0.302445
0.620834
1.22751
2.33608
4.27727
7.52674
12.7218
20.6302
32.1204
48.0972
68.8476
94.9407
122.132
171.488
8.16123e-13
2.46389e-12
7.1732e-12
2.14939e-11
6.46483e-11
1.94669e-10
5.87011e-10
1.77182e-09
5.35522e-09
1.61887e-08
4.89473e-08
1.47767e-07
4.45101e-07
1.33548e-06
3.98044e-06
1.17545e-05
3.42321e-05
9.76829e-05
0.000271908
0.000735199
0.00192467
0.00487009
0.0119004
0.028083
0.0640043
0.140817
0.298932
0.611923
1.20735
2.29491
4.1997
7.39195
12.5056
20.3222
31.8094
47.7718
68.5495
94.6973
121.984
171.34
8.16541e-13
2.4653e-12
7.17684e-12
2.14998e-11
6.46882e-11
1.94986e-10
5.89019e-10
1.78175e-09
5.40313e-09
1.6397e-08
4.98622e-08
1.51453e-07
4.59992e-07
1.39209e-06
4.1872e-06
1.24891e-05
3.65636e-05
0.000104441
0.00028978
0.000778466
0.00202248
0.00508061
0.0123382
0.0289561
0.0656363
0.143711
0.304058
0.621401
1.22587
2.33138
4.26938
7.51917
12.7315
20.7703
32.5606
48.8388
69.9463
96.3507
123.761
172.691
8.15664e-13
2.463e-12
7.17141e-12
2.14831e-11
6.46569e-11
1.95031e-10
5.9027e-10
1.79066e-09
5.45342e-09
1.66385e-08
5.09824e-08
1.56085e-07
4.7996e-07
1.4676e-06
4.5009e-06
1.35475e-05
4.005e-05
0.000115117
0.00032163
0.00087079
0.0022742
0.00571442
0.0138468
0.032453
0.0736073
0.161517
0.342563
0.701112
1.38225
2.62081
4.77378
8.36161
14.1045
22.8719
35.4867
52.6444
74.5433
101.466
128.937
176.581
8.17703e-13
2.46919e-12
7.1915e-12
2.15575e-11
6.49309e-11
1.96002e-10
5.94111e-10
1.8069e-09
5.52368e-09
1.69565e-08
5.23651e-08
1.62038e-07
5.06031e-07
1.57183e-06
4.90739e-06
1.4975e-05
5.29769e-05
0.000270278
0.00115037
0.00324737
0.00690927
0.0130885
0.0250175
0.0508639
0.107766
0.229439
0.47878
0.965662
1.86989
3.46792
6.18551
10.6093
17.4968
27.6262
41.7513
60.3757
83.3981
110.845
137.969
182.987
8.17435e-13
2.46847e-12
7.1898e-12
2.15627e-11
6.50107e-11
1.96519e-10
5.97073e-10
1.82208e-09
5.59362e-09
1.73226e-08
5.38728e-08
1.69724e-07
5.36175e-07
1.74759e-06
5.0431e-06
6.69241e-05
0.00227838
0.0109839
0.0254099
0.0394389
0.0501901
0.0612131
0.0825591
0.133403
0.247787
0.483843
0.936387
1.75519
3.16785
5.52766
9.32708
15.1875
23.8024
35.878
51.9272
72.1879
96.1191
123.555
149.596
190.332
8.15001e-13
2.46115e-12
7.16795e-12
2.15077e-11
6.48867e-11
1.96463e-10
5.98732e-10
1.83193e-09
5.66537e-09
1.76445e-08
5.56138e-08
1.77908e-07
5.73097e-07
1.98327e-06
5.5714e-06
0.0114207
0.0597736
0.098555
0.112379
0.112946
0.113359
0.129923
0.195743
0.371862
0.755043
1.45931
2.54719
4.17646
6.56385
10.1066
15.3153
22.8578
33.3948
47.4533
65.2061
86.5584
110.591
136.969
160.985
196.412
4.50601e-13
2.36333e-12
7.2311e-12
2.16163e-11
6.50737e-11
1.96949e-10
6.02406e-10
1.84306e-09
5.75486e-09
1.79556e-08
5.76728e-08
1.85928e-07
6.25223e-07
2.17293e-06
7.16087e-06
0.271684
0.205468
0.154166
0.118945
0.104605
0.1047
0.144747
0.31152
0.772134
1.79175
3.80465
7.10714
11.5033
16.7167
22.5039
29.0806
37.1538
47.6729
61.5683
79.227
100.486
123.817
148.564
170.016
199.884
4.38766e-13
2.32796e-12
7.18304e-12
2.15074e-11
6.48386e-11
1.96405e-10
6.02257e-10
1.8485e-09
5.7926e-09
1.82467e-08
5.90964e-08
1.9462e-07
6.70207e-07
2.42169e-06
9.41671e-06
0.805135
0.0216654
3.13615
19.6102
57.7304
95.5824
104.821
104.874
97.7248
89.4332
90.119
96.5569
110.48
130.584
154.276
174.594
200.709
8.1469e-13
2.45981e-12
7.16084e-12
2.14903e-11
6.49351e-11
1.96937e-10
6.0373e-10
1.86161e-09
5.83295e-09
1.85571e-08
6.02652e-08
2.02337e-07
7.03496e-07
2.63622e-06
1.05586e-05
0.829941
0.0836863
7.05681
41.3587
98.5386
121.603
123.927
115.549
99.2415
89.9451
92.4801
100.373
115.865
136.342
159.098
177.298
199.67
8.10216e-13
2.44686e-12
7.12304e-12
2.13757e-11
6.45825e-11
1.95938e-10
6.01023e-10
1.85648e-09
5.8273e-09
1.86185e-08
6.07642e-08
2.0599e-07
7.23002e-07
2.7798e-06
1.13712e-05
0.900305
0.112905
8.58568
49.1585
109.04
123.071
121.97
108.439
91.1511
86.7912
91.175
101.608
119.165
139.931
161.574
177.883
197.749
8.10544e-13
2.44793e-12
7.12581e-12
2.13792e-11
6.45661e-11
1.95864e-10
6.00628e-10
1.85585e-09
5.82538e-09
1.86349e-08
6.08815e-08
2.06878e-07
7.28115e-07
2.818e-06
1.15333e-05
0.89366
0.127596
9.30808
52.5909
112.567
123.994
120.523
104.154
87.2362
85.2268
90.3886
101.953
120.178
140.655
161.492
176.805
195.565
8.10186e-13
2.44685e-12
7.12267e-12
2.13698e-11
6.45377e-11
1.95778e-10
6.00368e-10
1.85505e-09
5.82286e-09
1.86267e-08
6.08547e-08
2.06788e-07
7.27819e-07
2.81698e-06
1.15301e-05
0.893659
0.127589
9.30782
52.5901
112.567
123.995
120.525
104.158
87.2446
85.2363
90.3998
101.967
120.193
140.671
161.509
176.82
195.578
8.09778e-13
2.44554e-12
7.11921e-12
2.13642e-11
6.45475e-11
1.95837e-10
6.00713e-10
1.85545e-09
5.82409e-09
1.86066e-08
6.07298e-08
2.05845e-07
7.22692e-07
2.77762e-06
1.13646e-05
0.900352
0.11289
8.58535
49.1584
109.044
123.079
121.98
108.449
91.1594
86.7973
91.1812
101.614
119.169
139.933
161.571
177.873
197.729
8.14184e-13
2.45882e-12
7.1583e-12
2.14832e-11
6.49144e-11
1.96869e-10
6.0356e-10
1.86093e-09
5.8315e-09
1.85503e-08
6.0251e-08
2.02243e-07
7.03407e-07
2.63469e-06
1.05484e-05
0.830092
0.0836729
7.05597
41.3548
98.5294
121.589
123.909
115.53
99.2181
89.9205
92.4538
100.349
115.848
136.338
159.11
177.323
199.707
8.14526e-13
2.45991e-12
7.16085e-12
2.14984e-11
6.49357e-11
1.96711e-10
6.03116e-10
1.85089e-09
5.79976e-09
1.82671e-08
5.91621e-08
1.9478e-07
6.71032e-07
2.42171e-06
9.41941e-06
0.805067
0.0216637
3.13572
19.608
57.7236
95.5678
104.8
104.852
97.7045
89.4167
90.1001
96.5392
110.464
130.57
154.267
174.587
200.708
8.15825e-13
2.46345e-12
7.17284e-12
2.15326e-11
6.49846e-11
1.96814e-10
6.02099e-10
1.84218e-09
5.75255e-09
1.79503e-08
5.76635e-08
1.85933e-07
6.25315e-07
2.1758e-06
7.14804e-06
0.271887
0.205491
0.154185
0.118974
0.104635
0.104725
0.14476
0.311512
0.772065
1.79152
3.80402
7.10558
11.5001
16.7117
22.4976
29.0744
37.1492
47.6708
61.5676
79.2278
100.488
123.819
148.568
170.02
199.891
8.1479e-13
2.46031e-12
7.16504e-12
2.14998e-11
6.48646e-11
1.9637e-10
5.98516e-10
1.83103e-09
5.66347e-09
1.76368e-08
5.55915e-08
1.77933e-07
5.71984e-07
1.99462e-06
5.54323e-06
0.0114491
0.0597819
0.0985242
0.112333
0.112981
0.113385
0.129938
0.195738
0.371822
0.754947
1.45917
2.54691
4.17619
6.56378
10.107
15.3165
22.8601
33.3981
47.4574
65.2102
86.562
110.593
136.973
160.987
196.416
8.18302e-13
2.47106e-12
7.19743e-12
2.15846e-11
6.50798e-11
1.9672e-10
5.9767e-10
1.82385e-09
5.59874e-09
1.73392e-08
5.39078e-08
1.69948e-07
5.35786e-07
1.75518e-06
5.02984e-06
6.69603e-05
0.00228278
0.0109783
0.025391
0.0394331
0.050208
0.0612294
0.0825659
0.133401
0.24778
0.483854
0.936478
1.75549
3.16858
5.52909
9.32949
15.191
23.8067
35.8823
51.9302
72.1891
96.1173
123.553
149.592
190.328
8.18349e-13
2.47122e-12
7.19746e-12
2.1575e-11
6.49842e-11
1.96178e-10
5.94622e-10
1.80871e-09
5.52862e-09
1.69752e-08
5.24179e-08
1.6222e-07
5.06586e-07
1.57337e-06
4.91794e-06
1.50011e-05
5.30099e-05
0.000270557
0.00115072
0.00324839
0.00691322
0.013098
0.0250317
0.0508851
0.1078
0.229504
0.47891
0.965922
1.87037
3.4687
6.18661
10.6106
17.498
27.6271
41.7516
60.3761
83.399
110.85
137.976
182.997
8.14953e-13
2.46089e-12
7.16516e-12
2.14645e-11
6.46093e-11
1.94884e-10
5.89891e-10
1.78955e-09
5.45045e-09
1.66298e-08
5.0963e-08
1.56017e-07
4.79971e-07
1.46701e-06
4.50048e-06
1.35484e-05
4.00503e-05
0.000115114
0.000321613
0.000870714
0.0022739
0.00571334
0.0138432
0.0324421
0.0735764
0.16144
0.34239
0.700761
1.3816
2.61968
4.772
8.35904
14.1011
22.8681
35.483
52.6419
74.5424
101.47
128.943
176.591
8.16758e-13
2.46602e-12
7.17882e-12
2.15046e-11
6.47092e-11
1.95035e-10
5.89154e-10
1.78202e-09
5.40395e-09
1.63984e-08
4.98666e-08
1.51458e-07
4.60012e-07
1.39209e-06
4.18698e-06
1.24871e-05
3.65583e-05
0.000104423
0.000289723
0.00077827
0.00202203
0.00507887
0.012334
0.0289427
0.0656058
0.143636
0.30391
0.621135
1.22546
2.33078
4.26851
7.5179
12.7297
20.7677
32.5574
48.8349
69.9419
96.3487
123.759
172.694
8.16448e-13
2.46489e-12
7.17641e-12
2.15024e-11
6.46718e-11
1.94728e-10
5.87149e-10
1.77216e-09
5.35629e-09
1.61921e-08
4.89582e-08
1.478e-07
4.45197e-07
1.33577e-06
3.98129e-06
1.17568e-05
3.42374e-05
9.76883e-05
0.00027189
0.000735301
0.00192387
0.00486993
0.0119
0.0280837
0.0640061
0.140827
0.298955
0.611964
1.20738
2.29492
4.19965
7.39177
12.5052
20.3215
31.8084
47.7711
68.5478
94.6992
121.984
171.343
8.1726e-13
2.46741e-12
7.18208e-12
2.15106e-11
6.4653e-11
1.9453e-10
5.85909e-10
1.76597e-09
5.32504e-09
1.60491e-08
4.83197e-08
1.45166e-07
4.34777e-07
1.29647e-06
3.84176e-06
1.12834e-05
3.27299e-05
9.33116e-05
0.000260313
0.000707167
0.00186541
0.00476274
0.0117534
0.0279721
0.0641831
0.141933
0.302433
0.620799
1.22744
2.33594
4.27709
7.52671
12.7223
20.6321
32.125
48.1054
68.8608
94.9563
122.152
171.501
8.17995e-13
2.47003e-12
7.18802e-12
2.15168e-11
6.46405e-11
1.94422e-10
5.85191e-10
1.7615e-09
5.3001e-09
1.59295e-08
4.77986e-08
1.43069e-07
4.26815e-07
1.26759e-06
3.74242e-06
1.09585e-05
3.17337e-05
9.04899e-05
0.000253054
0.000690444
0.00183299
0.00471481
0.0117204
0.0281175
0.0650104
0.144729
0.310135
0.639299
1.26732
2.41434
4.41951
7.76762
13.1043
21.1993
32.8777
48.9945
69.8868
96.0675
123.248
172.436
8.17213e-13
2.46778e-12
7.18226e-12
2.15036e-11
6.45996e-11
1.94199e-10
5.83805e-10
1.7541e-09
5.26596e-09
1.57889e-08
4.72566e-08
1.41073e-07
4.19709e-07
1.24319e-06
3.66185e-06
1.0706e-05
3.09851e-05
8.84591e-05
0.0002479
0.000679586
0.00181302
0.00469153
0.0117411
0.0283527
0.065963
0.14767
0.317895
0.65762
1.30685
2.49331
4.56599
8.02029
13.5109
21.8112
33.7399
50.0372
71.1105
97.4121
124.592
173.543
8.17881e-13
2.46954e-12
7.18651e-12
2.15148e-11
6.46054e-11
1.94004e-10
5.82347e-10
1.74711e-09
5.23758e-09
1.56818e-08
4.68623e-08
1.39651e-07
4.14689e-07
1.22606e-06
3.6057e-06
1.05312e-05
3.04741e-05
8.70671e-05
0.0002445
0.000672273
0.00180097
0.00468225
0.0117771
0.0285837
0.0668209
0.150247
0.324648
0.673566
1.34134
2.5623
4.69434
8.2433
13.8734
22.3632
34.5265
51.0504
72.2828
98.7218
125.936
174.681
8.16013e-13
2.46406e-12
7.16964e-12
2.14561e-11
6.43953e-11
1.93279e-10
5.79923e-10
1.73903e-09
5.20987e-09
1.55839e-08
4.65117e-08
1.38413e-07
4.10429e-07
1.21193e-06
3.56085e-06
1.03959e-05
3.00924e-05
8.6067e-05
0.000242241
0.000667775
0.00179491
0.00468424
0.011829
0.0288247
0.0676399
0.152603
0.330684
0.687645
1.3716
2.62263
4.80641
8.43795
14.1898
22.8459
35.2169
51.9784
73.3675
99.9453
127.225
175.842
8.13212e-13
2.45571e-12
7.14518e-12
2.13749e-11
6.41162e-11
1.9235e-10
5.76857e-10
1.72892e-09
5.17589e-09
1.54687e-08
4.61222e-08
1.37116e-07
4.06204e-07
1.19854e-06
3.51979e-06
1.02753e-05
2.97534e-05
8.51701e-05
0.000240124
0.000663353
0.00178747
0.00467806
0.0118488
0.0289586
0.0681465
0.154146
0.334794
0.69753
1.39341
2.66718
4.89104
8.58797
14.4382
23.2306
35.7733
52.7312
74.2884
100.957
128.273
176.736
8.13732e-13
2.45711e-12
7.14812e-12
2.13791e-11
6.41128e-11
1.92276e-10
5.76402e-10
1.72656e-09
5.16521e-09
1.54239e-08
4.59478e-08
1.36463e-07
4.03889e-07
1.1907e-06
3.49483e-06
1.01998e-05
2.95405e-05
8.46348e-05
0.000238858
0.00066088
0.00178421
0.00467965
0.0118795
0.0290989
0.0686212
0.155513
0.338296
0.705704
1.41095
2.70214
4.95588
8.7007
14.6215
23.5114
36.1764
53.2787
74.9844
101.733
129.095
177.49
8.15071e-13
2.46105e-12
7.15881e-12
2.14082e-11
6.41892e-11
1.9245e-10
5.76691e-10
1.72658e-09
5.16241e-09
1.54068e-08
4.58688e-08
1.36153e-07
4.0276e-07
1.18686e-06
3.48234e-06
1.01617e-05
2.94323e-05
8.43478e-05
0.000238176
0.000659545