/*--------------------------------*- C++ -*----------------------------------*\
| =========                 |                                                 |
| \\      /  F ield         | OpenFOAM: The Open Source CFD Toolbox           |
|  \\    /   O peration     | Version:  2412                                  |
|   \\  /    A nd           | Website:  www.openfoam.com                      |
|    \\/     M anipulation  |                                                 |
\*---------------------------------------------------------------------------*/
FoamFile
{
    version     2.0;
    format      ascii;
    arch        "LSB;label=32;scalar=64";
    class       volVectorField;
    location    "5";
    object      U1;
}
// * * * * * * * * * * * * * * * * * * * * * * * * * * * * * * * * * * * * * //

dimensions      [0 1 -1 0 0 0 0];

internalField   nonuniform List<vector> 
47360
(
(5.43292 -0.00212639 -2.05221)
(5.48056 -0.00568111 -2.07432)
(5.52726 -0.0113324 -2.08669)
(5.58506 -0.0173108 -2.09118)
(5.6572 -0.0235473 -2.0912)
(5.73774 -0.0300106 -2.08882)
(5.82661 -0.0366384 -2.08509)
(5.92237 -0.0433849 -2.08054)
(6.02624 -0.0501922 -2.07538)
(6.13641 -0.0570328 -2.06999)
(6.25418 -0.0637059 -2.06463)
(6.3775 -0.0702123 -2.05922)
(6.50731 -0.0761635 -2.05402)
(6.64101 -0.0816438 -2.04879)
(6.779 -0.0860621 -2.04393)
(6.91815 -0.0897089 -2.03912)
(7.05825 -0.0917949 -2.03491)
(7.19583 -0.092989 -2.03077)
(7.33032 -0.0923003 -2.02742)
(7.4584 -0.0909379 -2.02411)
(7.57959 -0.0876151 -2.02175)
(7.69126 -0.0841894 -2.01931)
(7.79328 -0.0788192 -2.01792)
(7.88402 -0.0741665 -2.01629)
(7.96367 -0.0674723 -2.01576)
(8.03161 -0.0625097 -2.01481)
(8.08822 -0.0551118 -2.01496)
(8.1338 -0.0506546 -2.01455)
(8.16872 -0.0430084 -2.01518)
(8.19404 -0.0395745 -2.01517)
(8.20996 -0.0324083 -2.01606)
(8.21779 -0.0289605 -2.01626)
(8.21788 -0.0233416 -2.01752)
(8.21143 -0.0210277 -2.01777)
(8.20327 -0.0172489 -2.01905)
(8.18354 -0.014889 -2.01918)
(8.16989 -0.0123281 -2.02047)
(8.1405 -0.0106165 -2.02034)
(8.1235 -0.00905847 -2.02142)
(8.07937 -0.00779599 -2.02075)
(5.43202 -0.00531919 -2.05206)
(5.48062 -0.0170232 -2.07423)
(5.52721 -0.0337097 -2.08667)
(5.58448 -0.0516851 -2.09092)
(5.65684 -0.0706838 -2.09084)
(5.73655 -0.0901069 -2.0885)
(5.82575 -0.110182 -2.08467)
(5.92066 -0.130406 -2.08014)
(6.0252 -0.151128 -2.07484)
(6.13469 -0.171634 -2.06948)
(6.25377 -0.192122 -2.06391)
(6.37686 -0.21161 -2.05854)
(6.50888 -0.230117 -2.05308)
(6.64301 -0.246444 -2.04789)
(6.78422 -0.260507 -2.04272)
(6.92439 -0.271126 -2.03798)
(7.06855 -0.278291 -2.03339)
(7.20735 -0.2812 -2.02936)
(7.34621 -0.280129 -2.02559)
(7.47508 -0.274911 -2.02243)
(7.6004 -0.266142 -2.0196)
(7.71188 -0.254218 -2.01738)
(7.81752 -0.239722 -2.0155)
(7.90685 -0.223488 -2.01414)
(7.98963 -0.205709 -2.01313)
(8.05495 -0.187702 -2.01248)
(8.11439 -0.168835 -2.0122)
(8.15624 -0.151233 -2.01207)
(8.19392 -0.132876 -2.01238)
(8.21463 -0.11732 -2.01257)
(8.23329 -0.10051 -2.01333)
(8.2365 -0.0878206 -2.01361)
(8.23974 -0.0735258 -2.0147)
(8.22848 -0.0637477 -2.01503)
(8.22083 -0.0529229 -2.01639)
(8.19846 -0.0455308 -2.01654)
(8.18449 -0.0380405 -2.01791)
(8.15319 -0.0328275 -2.01784)
(8.13567 -0.0282412 -2.01896)
(8.0897 -0.0243923 -2.01836)
(5.43227 -0.00839294 -2.05203)
(5.48044 -0.0283948 -2.07405)
(5.5271 -0.0558956 -2.08653)
(5.58353 -0.0860888 -2.09062)
(5.65578 -0.117795 -2.09044)
(5.73427 -0.150363 -2.08799)
(5.82347 -0.183931 -2.08405)
(5.91724 -0.21807 -2.07944)
(6.0223 -0.252985 -2.07401)
(6.1312 -0.287898 -2.0685)
(6.25188 -0.32274 -2.06276)
(6.37554 -0.356256 -2.05719)
(6.51079 -0.388056 -2.05149)
(6.64708 -0.416461 -2.04607)
(6.79338 -0.440896 -2.0406)
(6.9373 -0.459661 -2.03558)
(7.08801 -0.472286 -2.03066)
(7.23134 -0.47775 -2.02631)
(7.37711 -0.476076 -2.02219)
(7.50994 -0.467436 -2.01872)
(7.64125 -0.452444 -2.01556)
(7.7551 -0.432242 -2.01305)
(7.86518 -0.407493 -2.01088)
(7.95493 -0.379906 -2.00928)
(8.04051 -0.34974 -2.00803)
(8.10439 -0.319025 -2.00723)
(8.16534 -0.287367 -2.00677)
(8.20425 -0.257042 -2.00656)
(8.2426 -0.226881 -2.00677)
(8.25919 -0.199377 -2.00695)
(8.27831 -0.172674 -2.0077)
(8.27624 -0.14936 -2.00805)
(8.28021 -0.127323 -2.00921)
(8.26347 -0.109079 -2.00955)
(8.25584 -0.0917984 -2.01101)
(8.22875 -0.0787023 -2.0112)
(8.21393 -0.0664741 -2.01271)
(8.17889 -0.0575745 -2.0127)
(8.16038 -0.0500334 -2.01395)
(8.11077 -0.0435258 -2.01345)
(5.43258 -0.0115988 -2.05199)
(5.48027 -0.0397472 -2.07388)
(5.52687 -0.0780011 -2.08627)
(5.58213 -0.120303 -2.09015)
(5.65388 -0.164699 -2.08985)
(5.73073 -0.210568 -2.08719)
(5.81942 -0.257939 -2.08311)
(5.91164 -0.306497 -2.07833)
(6.01686 -0.356356 -2.07276)
(6.12508 -0.406608 -2.06699)
(6.24749 -0.457106 -2.061)
(6.37232 -0.506009 -2.0551)
(6.51177 -0.552898 -2.04905)
(6.65192 -0.594958 -2.04324)
(6.80536 -0.631747 -2.03732)
(6.95588 -0.65997 -2.03186)
(7.11608 -0.679645 -2.0264)
(7.2675 -0.688171 -2.02157)
(7.42328 -0.686614 -2.01687)
(7.56344 -0.674072 -2.01291)
(7.70312 -0.652859 -2.0092)
(7.82186 -0.623265 -2.00623)
(7.93766 -0.587905 -2.0036)
(8.02936 -0.547628 -2.00161)
(8.11799 -0.504702 -2.00001)
(8.18113 -0.460007 -1.9989)
(8.24295 -0.415162 -1.99824)
(8.27898 -0.371059 -1.99781)
(8.31673 -0.328588 -1.99795)
(8.32894 -0.288605 -1.998)
(8.34668 -0.251339 -1.99883)
(8.33921 -0.217547 -1.99916)
(8.34151 -0.187009 -2.00049)
(8.31881 -0.16035 -2.00089)
(8.31011 -0.136847 -2.00254)
(8.27664 -0.117382 -2.00286)
(8.26037 -0.100434 -2.00456)
(8.22007 -0.0875739 -2.0047)
(8.19984 -0.0769758 -2.00612)
(8.14502 -0.0675825 -2.00581)
(5.4328 -0.0146318 -2.05196)
(5.48012 -0.0508623 -2.07366)
(5.52632 -0.0996547 -2.08592)
(5.58015 -0.154114 -2.08952)
(5.65077 -0.211086 -2.08908)
(5.7255 -0.270643 -2.08609)
(5.8129 -0.332032 -2.0819)
(5.903 -0.395917 -2.07676)
(6.00773 -0.461477 -2.07113)
(6.11489 -0.528712 -2.06487)
(6.23892 -0.596362 -2.05868)
(6.36519 -0.663083 -2.05218)
(6.5098 -0.727285 -2.0458)
(6.65526 -0.785925 -2.03932)
(6.81827 -0.837597 -2.03288)
(6.97835 -0.877942 -2.02668)
(7.15179 -0.906579 -2.02053)
(7.31528 -0.919636 -2.0149)
(7.48511 -0.918614 -2.00941)
(7.63628 -0.902151 -2.00465)
(7.78745 -0.873911 -2.00018)
(7.91374 -0.834076 -1.99647)
(8.03704 -0.786723 -1.99319)
(8.13212 -0.732569 -1.99058)
(8.22441 -0.675382 -1.98847)
(8.28739 -0.615686 -1.98691)
(8.34982 -0.556461 -1.98596)
(8.38296 -0.4978 -1.98528)
(8.41917 -0.441908 -1.98531)
(8.42658 -0.388666 -1.98528)
(8.44149 -0.339646 -1.98614)
(8.42812 -0.294649 -1.98651)
(8.42715 -0.254656 -1.98802)
(8.39809 -0.219317 -1.98858)
(8.3863 -0.188863 -1.99052)
(8.34635 -0.163107 -1.99109)
(8.32786 -0.14155 -1.99314)
(8.28122 -0.124437 -1.99361)
(8.25868 -0.110857 -1.99532)
(8.19766 -0.0985142 -1.99547)
(5.43259 -0.0176328 -2.0519)
(5.48018 -0.0617071 -2.07345)
(5.52513 -0.120732 -2.08542)
(5.57774 -0.187201 -2.08879)
(5.64582 -0.256599 -2.08803)
(5.71842 -0.33011 -2.08478)
(5.8027 -0.40579 -2.08031)
(5.89053 -0.486018 -2.07476)
(5.99288 -0.56827 -2.06901)
(6.099 -0.654593 -2.06219)
(6.22329 -0.741392 -2.05574)
(6.35156 -0.829279 -2.0484)
(6.50143 -0.913914 -2.04168)
(6.65396 -0.993323 -2.03417)
(6.8289 -1.06369 -2.02717)
(7.00204 -1.11999 -2.01983)
(7.19328 -1.16073 -2.01281)
(7.37371 -1.18023 -2.00599)
(7.56291 -1.18064 -1.9994)
(7.72938 -1.15985 -1.9935)
(7.89612 -1.12367 -1.98791)
(8.03276 -1.07188 -1.98316)
(8.16615 -1.01097 -1.97896)
(8.26613 -0.941227 -1.97554)
(8.36327 -0.867922 -1.97275)
(8.42654 -0.791223 -1.97067)
(8.49004 -0.715844 -1.96931)
(8.52053 -0.641305 -1.96849)
(8.55539 -0.57102 -1.96854)
(8.55817 -0.503959 -1.96877)
(8.57006 -0.442667 -1.97003)
(8.55059 -0.385819 -1.97092)
(8.5457 -0.335588 -1.97292)
(8.51005 -0.290654 -1.974)
(8.49441 -0.25232 -1.97639)
(8.44802 -0.219384 -1.97748)
(8.42637 -0.192284 -1.97996)
(8.37363 -0.170169 -1.98099)
(8.34892 -0.153042 -1.98309)
(8.28154 -0.136874 -1.98404)
(5.43228 -0.0208871 -2.05175)
(5.48033 -0.0721546 -2.07326)
(5.52345 -0.141066 -2.08476)
(5.57462 -0.218974 -2.08802)
(5.6387 -0.300744 -2.08665)
(5.70882 -0.388109 -2.08336)
(5.78763 -0.478571 -2.07816)
(5.87298 -0.576015 -2.07256)
(5.96981 -0.676275 -2.06614)
(6.07524 -0.784193 -2.0592)
(6.19645 -0.89257 -2.05186)
(6.32812 -1.00632 -2.04392)
(6.48107 -1.11508 -2.03642)
(6.64386 -1.22188 -2.02776)
(6.83144 -1.3155 -2.02001)
(7.02329 -1.39436 -2.01102)
(7.23666 -1.45099 -2.00299)
(7.44154 -1.4806 -1.99434)
(7.65618 -1.48279 -1.98639)
(7.84393 -1.45738 -1.97872)
(8.03132 -1.41169 -1.97176)
(8.1819 -1.34549 -1.96552)
(8.32889 -1.26811 -1.96035)
(8.43646 -1.18044 -1.95596)
(8.54197 -1.08953 -1.95319)
(8.60772 -0.993926 -1.95121)
(8.67541 -0.900288 -1.95054)
(8.70446 -0.806354 -1.95023)
(8.74065 -0.718496 -1.95131)
(8.73948 -0.633692 -1.95243)
(8.75047 -0.557633 -1.95501)
(8.72712 -0.487647 -1.95746)
(8.7213 -0.427071 -1.96133)
(8.68091 -0.372385 -1.96427)
(8.66332 -0.326526 -1.96852)
(8.6116 -0.28632 -1.97137)
(8.58768 -0.253877 -1.97542)
(8.5295 -0.226473 -1.97801)
(8.50279 -0.205752 -1.98128)
(8.42849 -0.184804 -1.98387)
(5.43373 -0.024332 -2.05171)
(5.47971 -0.081806 -2.07273)
(5.52279 -0.160302 -2.08423)
(5.56909 -0.248453 -2.08679)
(5.63058 -0.342876 -2.08533)
(5.6942 -0.443046 -2.08142)
(5.76809 -0.549635 -2.07579)
(5.84678 -0.663877 -2.06991)
(5.93732 -0.785058 -2.06241)
(6.03867 -0.915737 -2.05589)
(6.15461 -1.05043 -2.04659)
(6.28864 -1.19428 -2.03922)
(6.44191 -1.33348 -2.02923)
(6.61797 -1.47578 -2.02058)
(6.81742 -1.59972 -2.01068)
(7.03625 -1.71068 -2.00031)
(7.27519 -1.78892 -1.99059)
(7.51748 -1.83391 -1.97953)
(7.76292 -1.83791 -1.96983)
(7.98258 -1.8067 -1.95951)
(8.19604 -1.7487 -1.95132)
(8.37003 -1.66546 -1.94432)
(8.53815 -1.5689 -1.94042)
(8.6611 -1.45702 -1.93739)
(8.78198 -1.34251 -1.93776)
(8.86387 -1.22895 -1.94041)
(8.94579 -1.11759 -1.94604)
(8.98223 -1.00599 -1.95234)
(9.02255 -0.898371 -1.95959)
(9.01705 -0.793086 -1.96589)
(9.02202 -0.695805 -1.97253)
(8.98238 -0.604402 -1.97724)
(8.96355 -0.524608 -1.98286)
(8.90331 -0.452676 -1.98632)
(8.87307 -0.393104 -1.99134)
(8.80185 -0.340657 -1.99383)
(8.76768 -0.299459 -1.99825)
(8.69165 -0.2634 -2.00028)
(8.65734 -0.237581 -2.00311)
(8.56372 -0.209015 -2.00475)
(5.4383 -0.0320272 -2.05316)
(5.47764 -0.0928726 -2.07151)
(5.52393 -0.177652 -2.08447)
(5.55972 -0.275194 -2.08422)
(5.62225 -0.381123 -2.08511)
(5.67179 -0.493724 -2.07757)
(5.7446 -0.616788 -2.07483)
(5.80697 -0.747514 -2.06485)
(5.8951 -0.892822 -2.05984)
(5.98114 -1.04634 -2.05012)
(6.09558 -1.215 -2.04143)
(6.22131 -1.39087 -2.03327)
(6.37843 -1.57272 -2.02008)
(6.56226 -1.7573 -2.01323)
(6.77798 -1.92518 -1.99773)
(7.02852 -2.07981 -1.98882)
(7.30183 -2.18975 -1.97421)
(7.59682 -2.2579 -1.96255)
(7.88212 -2.25943 -1.94778)
(8.15605 -2.22907 -1.93908)
(8.4058 -2.14545 -1.93318)
(8.63412 -2.0493 -1.93427)
(8.84503 -1.93737 -1.94466)
(9.00393 -1.80576 -1.958)
(9.12983 -1.65326 -1.97174)
(9.18919 -1.48594 -1.98135)
(9.23305 -1.31877 -1.99162)
(9.22873 -1.15616 -1.99913)
(9.2263 -1.00476 -2.00316)
(9.18401 -0.866204 -2.0075)
(9.15855 -0.743442 -2.01334)
(9.09363 -0.633253 -2.0178)
(9.05474 -0.539011 -2.02328)
(8.97536 -0.456146 -2.02676)
(8.93156 -0.388408 -2.0314)
(8.84474 -0.329672 -2.03373)
(8.80147 -0.284345 -2.0374)
(8.71152 -0.24471 -2.0387)
(8.67109 -0.216856 -2.04162)
(8.56271 -0.184299 -2.04298)
(5.44086 -0.0317253 -2.05382)
(5.47596 -0.10087 -2.07011)
(5.52312 -0.190062 -2.08488)
(5.54915 -0.299438 -2.08115)
(5.6095 -0.41205 -2.0855)
(5.64396 -0.540406 -2.07217)
(5.71188 -0.674653 -2.07558)
(5.75427 -0.827084 -2.05628)
(5.83636 -0.992583 -2.06071)
(5.89925 -1.17591 -2.03822)
(6.01111 -1.38024 -2.04066)
(6.11481 -1.59531 -2.02066)
(6.28167 -1.83311 -2.01382)
(6.45623 -2.06765 -2.00193)
(6.70226 -2.30305 -1.98253)
(6.98015 -2.51386 -1.97729)
(7.30704 -2.67438 -1.95349)
(7.66948 -2.77349 -1.94326)
(8.03628 -2.77691 -1.92878)
(8.40734 -2.75865 -1.94329)
(8.7533 -2.68009 -1.96971)
(8.99506 -2.50845 -1.99464)
(9.15191 -2.27708 -2.01786)
(9.23273 -2.02622 -2.02567)
(9.28519 -1.78634 -2.03217)
(9.29488 -1.5654 -2.04148)
(9.29583 -1.36042 -2.04833)
(9.25969 -1.17211 -2.05531)
(9.22782 -0.999437 -2.06599)
(9.15776 -0.842411 -2.07321)
(9.10202 -0.702089 -2.07966)
(9.00841 -0.578915 -2.08294)
(8.94225 -0.473259 -2.08689)
(8.83633 -0.383607 -2.08754)
(8.77015 -0.310416 -2.09009)
(8.65927 -0.249731 -2.08905)
(8.60027 -0.203131 -2.09042)
(8.48992 -0.163683 -2.08843)
(8.4401 -0.136894 -2.08851)
(8.31353 -0.10436 -2.08633)
(5.43847 -0.0298008 -2.05235)
(5.4766 -0.107215 -2.07091)
(5.51683 -0.198186 -2.08292)
(5.54035 -0.319118 -2.08111)
(5.58779 -0.434472 -2.08252)
(5.61429 -0.580013 -2.07024)
(5.6629 -0.719508 -2.07256)
(5.69297 -0.89979 -2.05023)
(5.74872 -1.07598 -2.05945)
(5.798 -1.30459 -2.02475)
(5.87986 -1.5317 -2.04257)
(5.97063 -1.81338 -1.99851)
(6.12448 -2.10152 -2.01561)
(6.28326 -2.41462 -1.97697)
(6.57151 -2.74268 -1.97594)
(6.86124 -3.02266 -1.95869)
(7.26657 -3.28069 -1.93057)
(7.77415 -3.43063 -1.93981)
(8.33032 -3.52387 -1.99031)
(8.72959 -3.35584 -2.04704)
(8.97271 -3.02734 -2.06013)
(9.11802 -2.68417 -2.08213)
(9.198 -2.35537 -2.09211)
(9.22021 -2.05455 -2.11531)
(9.20238 -1.77281 -2.13187)
(9.14252 -1.51555 -2.14181)
(9.07036 -1.27898 -2.14761)
(8.97078 -1.06372 -2.15073)
(8.87388 -0.866719 -2.15204)
(8.75214 -0.691991 -2.1513)
(8.64538 -0.537849 -2.15057)
(8.51349 -0.40765 -2.14773)
(8.40959 -0.297749 -2.14598)
(8.27687 -0.209817 -2.14156)
(8.18619 -0.138815 -2.13941)
(8.05897 -0.0848097 -2.13408)
(7.98695 -0.0437506 -2.13185)
(7.86699 -0.0127309 -2.12675)
(7.8135 0.00776086 -2.12376)
(7.68566 0.031403 -2.11995)
(5.43297 -0.0242388 -2.04858)
(5.47749 -0.106211 -2.07333)
(5.5083 -0.203964 -2.07849)
(5.52902 -0.328304 -2.08437)
(5.56143 -0.451292 -2.07489)
(5.57594 -0.602517 -2.07417)
(5.60416 -0.755768 -2.06139)
(5.61216 -0.949621 -2.05336)
(5.63834 -1.14798 -2.04633)
(5.66391 -1.4126 -2.02202)
(5.6947 -1.66741 -2.03277)
(5.78412 -2.03685 -1.98216)
(5.86243 -2.35414 -2.0122)
(6.04722 -2.82493 -1.94779)
(6.33659 -3.21759 -1.97797)
(6.60504 -3.63783 -1.91733)
(7.24255 -4.12509 -1.96127)
(8.01963 -4.35138 -2.07919)
(8.49974 -4.01773 -2.12465)
(8.78451 -3.54561 -2.1417)
(8.91705 -3.0976 -2.19178)
(8.93146 -2.64491 -2.22758)
(8.85952 -2.2272 -2.24854)
(8.73362 -1.84638 -2.25748)
(8.57713 -1.51073 -2.25281)
(8.39839 -1.22222 -2.24124)
(8.22412 -0.968615 -2.22751)
(8.04776 -0.745445 -2.21514)
(7.88672 -0.546599 -2.20474)
(7.72253 -0.377052 -2.19584)
(7.57968 -0.231451 -2.18815)
(7.43116 -0.116148 -2.18032)
(7.31175 -0.0206914 -2.17349)
(7.1812 0.0469577 -2.16582)
(7.08823 0.101743 -2.15955)
(6.97579 0.133555 -2.15234)
(6.90937 0.160614 -2.14666)
(6.81291 0.170608 -2.1411)
(6.77217 0.180588 -2.13538)
(6.68455 0.185254 -2.13381)
(5.42219 -0.0238511 -2.04876)
(5.48135 -0.105054 -2.07455)
(5.49343 -0.205241 -2.07626)
(5.52062 -0.327873 -2.08556)
(5.52791 -0.457909 -2.06913)
(5.53335 -0.605839 -2.07672)
(5.53526 -0.779026 -2.04948)
(5.50784 -0.965539 -2.0587)
(5.51628 -1.21151 -2.02641)
(5.46674 -1.46561 -2.02796)
(5.48944 -1.81178 -2.0096)
(5.48928 -2.19755 -1.97622)
(5.51057 -2.62877 -1.99758)
(5.72586 -3.25861 -1.937)
(5.86331 -3.68471 -1.94073)
(6.2853 -4.59226 -1.98427)
(7.32121 -5.16476 -2.1902)
(8.03389 -4.75356 -2.22013)
(8.3339 -4.14384 -2.28912)
(8.36998 -3.43851 -2.34764)
(8.21788 -2.75229 -2.37643)
(7.97678 -2.14356 -2.38334)
(7.67688 -1.64474 -2.36651)
(7.3764 -1.23658 -2.33937)
(7.07614 -0.924811 -2.29541)
(6.7973 -0.684012 -2.24872)
(6.56593 -0.482682 -2.21229)
(6.37112 -0.30602 -2.18943)
(6.21168 -0.147361 -2.17658)
(6.06803 -0.0130017 -2.16908)
(5.94993 0.0998333 -2.1645)
(5.83943 0.184559 -2.15949)
(5.75276 0.250351 -2.15607)
(5.67026 0.291014 -2.15039)
(5.60982 0.319118 -2.14624)
(5.55458 0.328282 -2.14009)
(5.5174 0.331931 -2.13754)
(5.48738 0.32617 -2.13182)
(5.46816 0.315766 -2.1311)
(5.47159 0.305128 -2.13534)
(5.40384 -0.0252865 -2.05269)
(5.49174 -0.103473 -2.07341)
(5.46805 -0.198803 -2.07775)
(5.52433 -0.321396 -2.08228)
(5.47095 -0.444197 -2.0686)
(5.50905 -0.59956 -2.07322)
(5.42434 -0.764505 -2.04344)
(5.4231 -0.967608 -2.05895)
(5.33052 -1.21965 -2.00785)
(5.25923 -1.48948 -2.03709)
(5.22248 -1.90953 -1.97617)
(5.0606 -2.2742 -1.97948)
(5.13981 -2.9614 -1.99601)
(5.10893 -3.51583 -1.87063)
(5.16623 -4.37899 -2.02128)
(6.04625 -5.75746 -2.33726)
(7.06318 -5.63712 -2.39207)
(7.46066 -4.76013 -2.42494)
(7.25405 -3.58356 -2.45197)
(6.84918 -2.5394 -2.46903)
(6.34239 -1.72635 -2.45829)
(5.86001 -1.12786 -2.41984)
(5.39674 -0.718506 -2.35091)
(5.05258 -0.434953 -2.27947)
(4.70611 -0.28036 -2.1731)
(4.43051 -0.195132 -2.09411)
(4.26011 -0.10102 -2.059)
(4.15631 0.0120143 -2.05718)
(4.09125 0.132039 -2.0722)
(4.03995 0.238477 -2.09005)
(4.00569 0.326705 -2.1055)
(3.97941 0.386719 -2.11484)
(3.96778 0.429355 -2.12182)
(3.96689 0.446589 -2.12331)
(3.97655 0.452145 -2.1234)
(3.99572 0.444098 -2.12234)
(4.01861 0.43201 -2.12241)
(4.06988 0.408299 -2.12329)
(4.10469 0.388649 -2.12385)
(4.21638 0.364443 -2.14225)
(5.40608 -0.026907 -2.05274)
(5.4914 -0.100912 -2.07235)
(5.46225 -0.18497 -2.07842)
(5.51086 -0.304981 -2.07864)
(5.43333 -0.41063 -2.07041)
(5.46348 -0.579335 -2.06474)
(5.31655 -0.711277 -2.046)
(5.3312 -0.951161 -2.0478)
(5.09174 -1.15102 -2.00139)
(5.09189 -1.50087 -2.04146)
(4.78853 -1.84339 -1.92746)
(4.66728 -2.39265 -2.03945)
(4.5472 -3.02639 -1.89148)
(4.15832 -3.83931 -1.92051)
(4.55573 -5.2418 -2.43189)
(5.2386 -6.13906 -2.5975)
(5.88041 -5.41606 -2.58115)
(5.4533 -3.72321 -2.47783)
(4.31943 -1.8292 -2.41095)
(3.57757 -0.761835 -2.36093)
(3.03654 -0.225708 -2.29639)
(2.68246 0.00942269 -2.21936)
(2.40757 0.0665557 -2.14174)
(2.23609 0.140979 -2.02665)
(1.83495 -0.0250867 -1.85995)
(1.7708 -0.148769 -1.84188)
(1.82443 -0.124236 -1.87439)
(1.8952 -0.00585344 -1.94123)
(1.96222 0.153294 -2.0072)
(2.02235 0.286901 -2.05317)
(2.08751 0.384848 -2.08267)
(2.15769 0.446267 -2.09941)
(2.23485 0.478715 -2.1094)
(2.32368 0.488213 -2.11419)
(2.41352 0.483821 -2.11794)
(2.52505 0.464381 -2.11939)
(2.61592 0.442157 -2.12203)
(2.76153 0.41005 -2.12717)
(2.84841 0.384997 -2.13202)
(3.0936 0.354864 -2.17047)
(5.43048 -0.0409644 -2.05411)
(5.4784 -0.0852171 -2.06884)
(5.47838 -0.176889 -2.08067)
(5.4745 -0.256787 -2.07272)
(5.4255 -0.386815 -2.07466)
(5.38563 -0.492223 -2.05334)
(5.26011 -0.669574 -2.05673)
(5.17467 -0.83035 -2.02169)
(4.93111 -1.08453 -2.0276)
(4.80624 -1.36717 -1.98592)
(4.37036 -1.76232 -1.96758)
(4.23179 -2.27033 -1.99954)
(3.62614 -2.94607 -1.84778)
(3.19092 -3.89629 -2.18414)
(3.56135 -5.16411 -2.80134)
(2.81438 -6.13097 -2.71455)
(3.94227 -4.7461 -2.7012)
(1.3123 -1.72552 -2.31821)
(0.20546 0.0530097 -2.13106)
(0.16288 0.203752 -2.06812)
(0.170625 0.143493 -2.04442)
(0.210722 0.0879871 -2.01919)
(0.210759 0.0469377 -1.9769)
(0.143257 -0.0311259 -1.88451)
(0.134371 -0.682231 -1.7017)
(0.0955732 -0.71952 -1.73443)
(0.202423 -0.443716 -1.83746)
(0.244009 -0.123269 -1.93555)
(0.311124 0.116497 -2.00986)
(0.40272 0.273927 -2.05921)
(0.521424 0.370192 -2.09032)
(0.658303 0.422264 -2.1085)
(0.809474 0.443958 -2.12011)
(0.972532 0.445447 -2.12748)
(1.13817 0.433005 -2.13332)
(1.32081 0.411251 -2.13667)
(1.48244 0.384122 -2.1425)
(1.70401 0.351985 -2.14961)
(1.84351 0.323978 -2.1638)
(2.2198 0.296425 -2.22737)
(5.43798 -0.0230855 -2.05326)
(5.47389 -0.0753456 -2.06849)
(5.48193 -0.13952 -2.07925)
(5.45079 -0.22269 -2.07275)
(5.40801 -0.312895 -2.0713)
(5.31709 -0.423841 -2.05343)
(5.19951 -0.553501 -2.04988)
(5.02109 -0.711695 -2.01957)
(4.78807 -0.919563 -2.02112)
(4.49809 -1.17011 -1.96889)
(4.0586 -1.52291 -1.994)
(3.66441 -1.96706 -1.92715)
(2.78355 -2.5808 -1.97858)
(2.49019 -3.33351 -2.44702)
(1.73162 -4.31028 -3.00157)
(0.575537 -4.59133 -2.82215)
(0.0166445 -0.953348 -1.72404)
(-0.62777 -0.908859 -1.73974)
(-0.796785 -0.420564 -1.88346)
(-0.906678 -0.118954 -1.96888)
(-0.869396 0.0894729 -2.0384)
(-0.770181 0.221398 -2.08153)
(-0.614679 0.296724 -2.10987)
(-0.429094 0.336323 -2.1296)
(-0.222979 0.350368 -2.14494)
(-0.00459848 0.348219 -2.15748)
(0.219457 0.334883 -2.1669)
(0.452644 0.315519 -2.17373)
(0.67517 0.289696 -2.18154)
(0.947224 0.262551 -2.19083)
(1.13735 0.234908 -2.21848)
(1.62133 0.216722 -2.30694)
(5.43255 -0.0188281 -2.05215)
(5.47703 -0.0556369 -2.06972)
(5.47254 -0.107496 -2.07647)
(5.44507 -0.164231 -2.07482)
(5.37527 -0.23848 -2.06658)
(5.2811 -0.317684 -2.05631)
(5.12214 -0.420844 -2.041)
(4.92289 -0.540192 -2.02503)
(4.63119 -0.700843 -2.00336)
(4.27095 -0.896943 -1.98294)
(3.77198 -1.17079 -1.96312)
(3.17641 -1.50461 -1.95552)
(2.37359 -1.9493 -2.04048)
(1.7941 -2.39625 -2.52444)
(1.46557 -2.70911 -3.04253)
(0.813687 -2.54725 -2.83943)
(-0.151131 -0.841172 -1.77659)
(-1.04078 -0.738508 -1.75875)
(-1.41784 -0.358945 -1.90286)
(-1.60737 -0.130989 -1.98502)
(-1.60738 0.0349615 -2.05759)
(-1.50284 0.139411 -2.10243)
(-1.33448 0.196509 -2.13196)
(-1.12066 0.227153 -2.15433)
(-0.883598 0.237584 -2.17139)
(-0.63075 0.235379 -2.1857)
(-0.370285 0.225211 -2.19833)
(-0.104201 0.209962 -2.21104)
(0.15967 0.189755 -2.22553)
(0.458756 0.17025 -2.24176)
(0.691537 0.147877 -2.2826)
(1.24657 0.140097 -2.38837)
(5.43834 -0.00382361 -2.05261)
(5.47451 -0.0392789 -2.06773)
(5.4706 -0.0678012 -2.07714)
(5.43552 -0.100817 -2.07263)
(5.35835 -0.146359 -2.06783)
(5.24861 -0.198388 -2.05203)
(5.07205 -0.261405 -2.04292)
(4.84895 -0.338584 -2.01746)
(4.51572 -0.437248 -2.00692)
(4.12314 -0.564021 -1.97089)
(3.5332 -0.727992 -1.97118)
(2.90541 -0.939071 -1.94956)
(1.90309 -1.19681 -2.08143)
(1.43291 -1.50889 -2.62881)
(0.976772 -1.81951 -3.08172)
(0.3958 -1.66041 -2.81775)
(-0.206136 -0.520181 -1.77816)
(-1.24129 -0.476845 -1.75128)
(-1.73837 -0.2299 -1.91626)
(-1.96025 -0.101833 -1.99884)
(-2.00299 -0.006928 -2.06649)
(-1.90712 0.0767314 -2.12572)
(-1.73241 0.104301 -2.15264)
(-1.50988 0.126678 -2.17816)
(-1.25614 0.133019 -2.19578)
(-0.986766 0.131794 -2.21084)
(-0.70728 0.125805 -2.22448)
(-0.422899 0.115793 -2.2393)
(-0.135761 0.10282 -2.25867)
(0.176822 0.0913301 -2.28512)
(0.439098 0.0778551 -2.33693)
(1.03093 0.076425 -2.45175)
(5.44293 0.00147018 -2.05035)
(5.4704 -0.0156933 -2.06778)
(5.46232 -0.0254141 -2.0755)
(5.42732 -0.0328924 -2.07412)
(5.35347 -0.0493096 -2.06662)
(5.22789 -0.065884 -2.05327)
(5.05343 -0.0893742 -2.0401)
(4.80215 -0.113384 -2.01929)
(4.47165 -0.15006 -2.00225)
(4.0284 -0.188873 -1.9748)
(3.45213 -0.248853 -1.96745)
(2.7444 -0.309217 -1.96443)
(1.84017 -0.388061 -2.11424)
(1.35128 -0.456714 -2.63951)
(0.939618 -0.490027 -3.11038)
(0.430222 -0.43846 -2.84127)
(-0.23123 -0.177969 -1.77667)
(-1.32901 -0.161285 -1.75203)
(-1.86891 -0.0796356 -1.9257)
(-2.10077 -0.0369756 -2.01204)
(-2.1566 -0.0111327 -2.06752)
(-2.09017 0.0250456 -2.14117)
(-1.89994 0.0316841 -2.16568)
(-1.68476 0.0402766 -2.19239)
(-1.41941 0.0424044 -2.2107)
(-1.14645 0.0419815 -2.22572)
(-0.858128 0.0400999 -2.23988)
(-0.566594 0.0366015 -2.25534)
(-0.269488 0.0320827 -2.27651)
(0.0491944 0.0282199 -2.30893)
(0.326067 0.0239093 -2.36727)
(0.932194 0.0240824 -2.48558)
(5.44295 -0.00146466 -2.05034)
(5.4704 0.015682 -2.06778)
(5.46232 0.0254151 -2.0755)
(5.42732 0.0328922 -2.07412)
(5.35348 0.0493074 -2.06662)
(5.22789 0.0658768 -2.05328)
(5.05345 0.0893634 -2.0401)
(4.80215 0.113369 -2.01929)
(4.47168 0.150041 -2.00225)
(4.02835 0.188851 -1.97481)
(3.45221 0.248829 -1.96745)
(2.74435 0.309195 -1.96443)
(1.84026 0.388039 -2.11424)
(1.3513 0.456689 -2.6395)
(0.939631 0.49001 -3.11038)
(0.430224 0.438458 -2.84127)
(-0.231237 0.177867 -1.77667)
(-1.32903 0.161204 -1.75203)
(-1.86894 0.0796089 -1.9257)
(-2.1008 0.0369777 -2.01204)
(-2.15663 0.0111542 -2.06752)
(-2.0902 -0.0249989 -2.14118)
(-1.89998 -0.0316311 -2.16568)
(-1.68479 -0.0402166 -2.1924)
(-1.41945 -0.042342 -2.2107)
(-1.14649 -0.0419188 -2.22572)
(-0.858167 -0.0400382 -2.23988)
(-0.566627 -0.0365424 -2.25534)
(-0.269519 -0.0320275 -2.27651)
(0.0491633 -0.0281691 -2.30893)
(0.326039 -0.0238655 -2.36728)
(0.932166 -0.0240477 -2.48558)
(5.43835 0.00379297 -2.05261)
(5.47448 0.0392927 -2.06773)
(5.47058 0.0678046 -2.07714)
(5.43553 0.100812 -2.07263)
(5.35834 0.146355 -2.06784)
(5.24863 0.198378 -2.05203)
(5.07205 0.261397 -2.04293)
(4.84898 0.338568 -2.01746)
(4.51571 0.437233 -2.00692)
(4.12319 0.563998 -1.97089)
(3.53317 0.727966 -1.97118)
(2.90549 0.939038 -1.94957)
(1.90309 1.19678 -2.08141)
(1.43295 1.50887 -2.62883)
(0.97681 1.81953 -3.08171)
(0.395811 1.66043 -2.81775)
(-0.206154 0.520093 -1.77815)
(-1.24134 0.476768 -1.75128)
(-1.73845 0.229877 -1.91626)
(-1.96034 0.10184 -1.99884)
(-2.0031 0.00696408 -2.06649)
(-1.90724 -0.0766839 -2.12572)
(-1.73252 -0.104243 -2.15264)
(-1.51 -0.126616 -2.17816)
(-1.25625 -0.132955 -2.19579)
(-0.986876 -0.131731 -2.21084)
(-0.707388 -0.125743 -2.22448)
(-0.423003 -0.115734 -2.2393)
(-0.13586 -0.102765 -2.25867)
(0.176725 -0.091279 -2.28512)
(0.439008 -0.0778114 -2.33694)
(1.03084 -0.0763907 -2.45175)
(5.43255 0.0188248 -2.05215)
(5.47702 0.0556371 -2.06972)
(5.47254 0.107492 -2.07647)
(5.44507 0.164228 -2.07482)
(5.37527 0.238472 -2.06658)
(5.28109 0.317678 -2.05631)
(5.12214 0.420831 -2.04099)
(4.92288 0.54018 -2.02503)
(4.63119 0.700822 -2.00335)
(4.27093 0.896921 -1.98294)
(3.77201 1.17076 -1.96313)
(3.1764 1.50457 -1.9555)
(2.37367 1.94927 -2.04053)
(1.79411 2.39624 -2.52437)
(1.4656 2.70908 -3.04251)
(0.813702 2.54725 -2.83942)
(-0.151169 0.841104 -1.77659)
(-1.0409 0.73846 -1.75875)
(-1.418 0.358933 -1.90287)
(-1.60755 0.131011 -1.98502)
(-1.60758 -0.0349119 -2.05759)
(-1.50305 -0.139357 -2.10243)
(-1.33469 -0.196446 -2.13197)
(-1.12086 -0.227089 -2.15433)
(-0.883798 -0.237521 -2.17139)
(-0.630946 -0.235317 -2.1857)
(-0.370476 -0.225152 -2.19833)
(-0.104384 -0.209906 -2.21104)
(0.159497 -0.189703 -2.22553)
(0.458588 -0.170202 -2.24176)
(0.691379 -0.147836 -2.28261)
(1.24641 -0.140065 -2.38837)
(5.43798 0.0230928 -2.05326)
(5.47389 0.0753418 -2.06849)
(5.48193 0.139525 -2.07925)
(5.45079 0.222681 -2.07275)
(5.408 0.312898 -2.0713)
(5.31708 0.423825 -2.05343)
(5.19949 0.5535 -2.04988)
(5.02108 0.71167 -2.01957)
(4.78806 0.919552 -2.02112)
(4.49805 1.17008 -1.96889)
(4.05866 1.52287 -1.99399)
(3.66431 1.96703 -1.92715)
(2.78365 2.58075 -1.97857)
(2.49025 3.33344 -2.44704)
(1.73169 4.31028 -3.00158)
(0.575564 4.59136 -2.82213)
(0.0165657 0.953407 -1.72406)
(-0.627958 0.908863 -1.73976)
(-0.797046 0.420563 -1.88347)
(-0.906973 0.118979 -1.96889)
(-0.869695 -0.0894274 -2.03841)
(-0.770489 -0.221342 -2.08153)
(-0.614986 -0.296665 -2.10987)
(-0.429395 -0.336265 -2.1296)
(-0.223272 -0.350313 -2.14494)
(-0.00488032 -0.348168 -2.15747)
(0.219188 -0.334836 -2.1669)
(0.452385 -0.315476 -2.17372)
(0.674922 -0.289657 -2.18154)
(0.946988 -0.262517 -2.19082)
(1.13712 -0.234879 -2.21848)
(1.62112 -0.216701 -2.30694)
(5.43048 0.0409642 -2.05411)
(5.4784 0.0852193 -2.06884)
(5.47836 0.176887 -2.08066)
(5.47451 0.256785 -2.07273)
(5.42549 0.386809 -2.07465)
(5.38564 0.492222 -2.05334)
(5.26009 0.669559 -2.05672)
(5.17466 0.830346 -2.0217)
(4.93109 1.0845 -2.02759)
(4.80623 1.36715 -1.98593)
(4.37034 1.76225 -1.96757)
(4.23177 2.27029 -1.99956)
(3.62619 2.94597 -1.84776)
(3.19091 3.89619 -2.18414)
(3.56149 5.16405 -2.80132)
(2.81448 6.13108 -2.71455)
(3.94239 4.74628 -2.70119)
(1.31233 1.72568 -2.31818)
(0.205321 -0.0529647 -2.13099)
(0.162647 -0.203711 -2.06807)
(0.170327 -0.143452 -2.04439)
(0.21041 -0.0879561 -2.01917)
(0.210455 -0.0469105 -1.97689)
(0.142922 0.031238 -1.8845)
(0.134134 0.682402 -1.70171)
(0.0952863 0.719666 -1.73444)
(0.202144 0.443765 -1.83748)
(0.24367 0.123311 -1.93555)
(0.310757 -0.116454 -2.00985)
(0.402344 -0.273884 -2.05919)
(0.52106 -0.37015 -2.09031)
(0.657954 -0.422228 -2.10849)
(0.809142 -0.443927 -2.1201)
(0.972212 -0.445421 -2.12747)
(1.13786 -0.432984 -2.1333)
(1.32052 -0.411236 -2.13666)
(1.48216 -0.38411 -2.14248)
(1.70374 -0.351978 -2.1496)
(1.84325 -0.323974 -2.16378)
(2.21956 -0.296426 -2.22736)
(5.40608 0.0269087 -2.05274)
(5.49139 0.100913 -2.07235)
(5.46224 0.18497 -2.07842)
(5.51086 0.304977 -2.07864)
(5.43332 0.410632 -2.07041)
(5.46347 0.579324 -2.06474)
(5.31654 0.711283 -2.04601)
(5.33117 0.951137 -2.04779)
(5.09171 1.15102 -2.0014)
(5.09186 1.50082 -2.04145)
(4.78849 1.84338 -1.92749)
(4.66727 2.39255 -2.03944)
(4.54716 3.02634 -1.8915)
(4.15845 3.83911 -1.92052)
(4.55579 5.24156 -2.43179)
(5.23883 6.13902 -2.59739)
(5.88064 5.4161 -2.58103)
(5.45356 3.72341 -2.47766)
(4.3195 1.82932 -2.41073)
(3.57747 0.761853 -2.3607)
(3.0363 0.225663 -2.29618)
(2.68213 -0.00948976 -2.21919)
(2.4072 -0.0666228 -2.14161)
(2.23567 -0.141048 -2.02653)
(1.83446 0.0251165 -1.85986)
(1.77035 0.148859 -1.84182)
(1.82403 0.124321 -1.87435)
(1.89484 0.00590571 -1.9412)
(1.96188 -0.153257 -2.00717)
(2.02203 -0.286879 -2.05314)
(2.08722 -0.384838 -2.08264)
(2.15741 -0.446267 -2.09938)
(2.23459 -0.478723 -2.10937)
(2.32345 -0.488227 -2.11417)
(2.4133 -0.483839 -2.11791)
(2.52484 -0.464404 -2.11937)
(2.61572 -0.442182 -2.122)
(2.76133 -0.410077 -2.12714)
(2.84822 -0.385027 -2.132)
(3.09342 -0.354896 -2.17044)
(5.40382 0.0252953 -2.05269)
(5.49174 0.10347 -2.07341)
(5.46803 0.198811 -2.07775)
(5.52434 0.321388 -2.08228)
(5.47093 0.444209 -2.06859)
(5.50906 0.599549 -2.07323)
(5.4243 0.764519 -2.04342)
(5.4231 0.967591 -2.05897)
(5.33046 1.21966 -2.00783)
(5.25921 1.48945 -2.03712)
(5.22241 1.90951 -1.97614)
(5.06056 2.27416 -1.97955)
(5.13978 2.96125 -1.996)
(5.10886 3.51581 -1.87072)
(5.16647 4.37855 -2.0214)
(6.04646 5.75713 -2.33714)
(7.06346 5.63685 -2.39189)
(7.46108 4.75995 -2.42472)
(7.2545 3.58345 -2.45173)
(6.84962 2.53933 -2.46878)
(6.34278 1.72629 -2.45804)
(5.8603 1.12779 -2.41961)
(5.39694 0.718402 -2.3507)
(5.05271 0.43483 -2.27929)
(4.70617 0.280239 -2.17294)
(4.43051 0.195032 -2.09397)
(4.26009 0.100937 -2.05888)
(4.15628 -0.0120838 -2.05708)
(4.09123 -0.132102 -2.07212)
(4.03993 -0.238536 -2.08998)
(4.00569 -0.326765 -2.10544)
(3.97942 -0.386779 -2.11479)
(3.96778 -0.429418 -2.12178)
(3.9669 -0.446653 -2.12327)
(3.97656 -0.452208 -2.12337)
(3.99572 -0.444162 -2.12231)
(4.01861 -0.432074 -2.12238)
(4.06988 -0.408363 -2.12326)
(4.10467 -0.388711 -2.12383)
(4.21635 -0.364505 -2.14222)
(5.42215 0.0238409 -2.04875)
(5.48136 0.105058 -2.07456)