/*--------------------------------*- C++ -*----------------------------------*\
| =========                 |                                                 |
| \\      /  F ield         | OpenFOAM: The Open Source CFD Toolbox           |
|  \\    /   O peration     | Version:  2412                                  |
|   \\  /    A nd           | Website:  www.openfoam.com                      |
|    \\/     M anipulation  |                                                 |
\*---------------------------------------------------------------------------*/
FoamFile
{
    version     2.0;
    format      ascii;
    arch        "LSB;label=32;scalar=64";
    class       volVectorField;
    location    "5";
    object      U2;
}
// * * * * * * * * * * * * * * * * * * * * * * * * * * * * * * * * * * * * * //

dimensions      [0 1 -1 0 0 0 0];

internalField   nonuniform List<vector> 
47360
(
(6.46603 -0.00184418 -3.93856)
(6.49278 -0.00364601 -3.95686)
(6.51997 -0.00717323 -3.97064)
(6.55348 -0.0114201 -3.97907)
(6.59644 -0.0160816 -3.98389)
(6.64623 -0.0211322 -3.98623)
(6.70305 -0.0265095 -3.98692)
(6.76629 -0.0321261 -3.98655)
(6.83694 -0.037933 -3.98551)
(6.91403 -0.0438591 -3.98392)
(6.99847 -0.0497888 -3.98205)
(7.08906 -0.0556556 -3.97979)
(7.18643 -0.061241 -3.97738)
(7.28891 -0.0664986 -3.97463)
(7.39674 -0.0710924 -3.97191)
(7.50767 -0.0750628 -3.9686)
(7.62145 -0.0779674 -3.96531)
(7.73549 -0.0800346 -3.96176)
(7.84925 -0.0807361 -3.95863)
(7.95997 -0.0806092 -3.95536)
(8.06712 -0.0790006 -3.95278)
(8.16818 -0.0768669 -3.95004)
(8.26298 -0.0732351 -3.94817)
(8.34944 -0.0696573 -3.94606)
(8.42788 -0.0644928 -3.94496)
(8.49675 -0.06022 -3.94345)
(8.55689 -0.0540424 -3.94303)
(8.60706 -0.049795 -3.94208)
(8.64885 -0.0431361 -3.94219)
(8.6807 -0.039318 -3.94171)
(8.70567 -0.0330466 -3.94218)
(8.72036 -0.0289956 -3.94199)
(8.73103 -0.0241153 -3.94291)
(8.73176 -0.0207621 -3.94282)
(8.72915 -0.0164093 -3.94409)
(8.71919 -0.0142266 -3.9439)
(8.71 -0.0110795 -3.94521)
(8.68874 -0.00908 -3.94495)
(8.67512 -0.00705714 -3.94603)
(8.63794 -0.00516494 -3.94539)
(6.46493 -0.00368884 -3.93834)
(6.4927 -0.0102758 -3.9567)
(6.51986 -0.0209671 -3.97054)
(6.55295 -0.0336476 -3.97881)
(6.59606 -0.0479446 -3.98352)
(6.6453 -0.0632904 -3.98581)
(6.70229 -0.0796556 -3.98641)
(6.76495 -0.0965882 -3.98596)
(6.83592 -0.114219 -3.98479)
(6.91251 -0.132028 -3.98315)
(6.99766 -0.150096 -3.98111)
(7.08808 -0.167727 -3.97882)
(7.18679 -0.18488 -3.97623)
(7.28965 -0.200668 -3.97348)
(7.39962 -0.214953 -3.97051)
(7.51149 -0.226788 -3.9672)
(7.62813 -0.236059 -3.96361)
(7.74347 -0.241986 -3.9601)
(7.86051 -0.244668 -3.95661)
(7.97241 -0.243717 -3.95342)
(8.08284 -0.239553 -3.95042)
(8.18447 -0.232205 -3.94781)
(8.28226 -0.222232 -3.94548)
(8.36836 -0.210033 -3.94357)
(8.44945 -0.196008 -3.94197)
(8.51688 -0.180976 -3.94073)
(8.57942 -0.16477 -3.93985)
(8.62712 -0.148901 -3.93916)
(8.67114 -0.132126 -3.93894)
(8.69978 -0.117088 -3.93862)
(8.72661 -0.10101 -3.93898)
(8.73827 -0.087826 -3.93884)
(8.75031 -0.0735758 -3.93969)
(8.74769 -0.0629791 -3.9396)
(8.74685 -0.0505589 -3.94095)
(8.73323 -0.0427099 -3.94082)
(8.72422 -0.0336463 -3.94221)
(8.70088 -0.0274587 -3.94203)
(8.68695 -0.021534 -3.94318)
(8.64802 -0.0158279 -3.94265)
(6.46508 -0.00574568 -3.93832)
(6.49258 -0.0171685 -3.95655)
(6.51978 -0.034791 -3.97039)
(6.55232 -0.0560473 -3.97846)
(6.59528 -0.0799017 -3.98301)
(6.64364 -0.105606 -3.98509)
(6.70046 -0.132943 -3.98552)
(6.76221 -0.161445 -3.98485)
(6.83328 -0.191081 -3.9835)
(6.9093 -0.221276 -3.98164)
(6.99526 -0.251889 -3.97942)
(7.08594 -0.282041 -3.97691)
(7.18663 -0.31136 -3.97412)
(7.291 -0.338618 -3.97117)
(7.40444 -0.363248 -3.96792)
(7.5192 -0.383907 -3.96431)
(7.64067 -0.400011 -3.96041)
(7.75984 -0.410547 -3.95659)
(7.88239 -0.415252 -3.95277)
(7.99814 -0.41389 -3.94924)
(8.11377 -0.406734 -3.9459)
(8.21834 -0.394329 -3.94295)
(8.32032 -0.377203 -3.9403)
(8.40791 -0.35645 -3.93808)
(8.4919 -0.332504 -3.93621)
(8.55924 -0.306803 -3.93473)
(8.62351 -0.279429 -3.93365)
(8.66966 -0.252045 -3.93281)
(8.71454 -0.224224 -3.93247)
(8.74037 -0.19778 -3.93211)
(8.76769 -0.17176 -3.93245)
(8.77539 -0.148095 -3.93237)
(8.78787 -0.125357 -3.93327)
(8.7805 -0.10584 -3.93329)
(8.7807 -0.0869114 -3.93465)
(8.76206 -0.0720574 -3.93464)
(8.75289 -0.0574922 -3.93617)
(8.72568 -0.0466536 -3.93612)
(8.71103 -0.0369593 -3.93741)
(8.66863 -0.0273239 -3.9371)
(6.46531 -0.00782475 -3.93828)
(6.49249 -0.0239796 -3.95639)
(6.51964 -0.0485174 -3.97013)
(6.55139 -0.0782826 -3.97792)
(6.59393 -0.111672 -3.98225)
(6.64106 -0.147817 -3.98397)
(6.6973 -0.186317 -3.98417)
(6.75775 -0.22672 -3.98312)
(6.82856 -0.268868 -3.98151)
(6.9038 -0.312107 -3.97928)
(6.9905 -0.35619 -3.97679)
(7.08169 -0.399882 -3.97391)
(7.18491 -0.442706 -3.9708)
(7.29187 -0.482707 -3.96755)
(7.41016 -0.519252 -3.96385)
(7.52981 -0.549953 -3.9598)
(7.65833 -0.574274 -3.95541)
(7.78412 -0.590138 -3.95112)
(7.91481 -0.597639 -3.94677)
(8.0373 -0.595804 -3.94274)
(8.16047 -0.585775 -3.93884)
(8.2704 -0.567595 -3.93539)
(8.37817 -0.542975 -3.93222)
(8.46895 -0.512574 -3.92953)
(8.55661 -0.478184 -3.92725)
(8.62481 -0.440639 -3.92539)
(8.69074 -0.401464 -3.92406)
(8.73567 -0.361524 -3.92295)
(8.78068 -0.321908 -3.92252)
(8.80362 -0.283406 -3.92201)
(8.83012 -0.246635 -3.92241)
(8.83366 -0.212257 -3.92234)
(8.84492 -0.180445 -3.92341)
(8.83248 -0.151828 -3.92356)
(8.8318 -0.125935 -3.9251)
(8.80744 -0.103767 -3.92533)
(8.79747 -0.0838884 -3.92705)
(8.76499 -0.0679087 -3.92725)
(8.74902 -0.0544596 -3.92872)
(8.70161 -0.0406309 -3.92877)
(6.46548 -0.00986045 -3.93826)
(6.49242 -0.0306843 -3.9562)
(6.51933 -0.0619966 -3.96978)
(6.55011 -0.100259 -3.97719)
(6.59179 -0.143091 -3.98122)
(6.63729 -0.189865 -3.98245)
(6.69236 -0.239666 -3.98233)
(6.75096 -0.292518 -3.9807)
(6.82093 -0.347715 -3.97881)
(6.89491 -0.405089 -3.97596)
(6.98211 -0.463751 -3.97316)
(7.07376 -0.522708 -3.96966)
(7.17999 -0.580768 -3.9662)
(7.29037 -0.635724 -3.96242)
(7.41507 -0.686293 -3.95816)
(7.54168 -0.729265 -3.95342)
(7.67997 -0.763622 -3.94842)
(7.81544 -0.786331 -3.94343)
(7.95759 -0.797407 -3.93837)
(8.09006 -0.795441 -3.93359)
(8.22374 -0.782197 -3.92895)
(8.3417 -0.757666 -3.92473)
(8.45737 -0.724464 -3.9209)
(8.55307 -0.683293 -3.91754)
(8.64551 -0.637016 -3.91472)
(8.71547 -0.586407 -3.91236)
(8.78336 -0.534062 -3.91071)
(8.82728 -0.480474 -3.90932)
(8.872 -0.427781 -3.90878)
(8.8918 -0.376211 -3.90821)
(8.9165 -0.327435 -3.90868)
(8.91542 -0.281484 -3.9087)
(8.92415 -0.239534 -3.90999)
(8.90619 -0.201402 -3.91041)
(8.90302 -0.167684 -3.91227)
(8.8725 -0.138082 -3.91289)
(8.86085 -0.112821 -3.91497)
(8.82212 -0.0913595 -3.91565)
(8.80425 -0.0742348 -3.91746)
(8.75066 -0.0560755 -3.91814)
(6.46534 -0.0121598 -3.93819)
(6.49245 -0.0375092 -3.95603)
(6.51862 -0.0753952 -3.96928)
(6.54854 -0.121988 -3.97633)
(6.58843 -0.174095 -3.97985)
(6.63219 -0.231545 -3.98056)
(6.6848 -0.292763 -3.9799)
(6.74125 -0.358609 -3.97763)
(6.80898 -0.427526 -3.97523)
(6.88138 -0.50038 -3.97162)
(6.96798 -0.575094 -3.96836)
(7.06007 -0.651629 -3.96398)
(7.16917 -0.727348 -3.96012)
(7.28381 -0.800364 -3.95546)
(7.41639 -0.868085 -3.95062)
(7.55226 -0.9265 -3.94489)
(7.70357 -0.973763 -3.93916)
(7.85243 -1.0054 -3.9332)
(8.0103 -1.02136 -3.92721)
(8.15662 -1.01954 -3.92144)
(8.30463 -1.00271 -3.91579)
(8.43365 -0.970684 -3.91061)
(8.56003 -0.927523 -3.90591)
(8.66264 -0.873923 -3.90179)
(8.76152 -0.81387 -3.89833)
(8.83419 -0.748131 -3.89549)
(8.90482 -0.680604 -3.89349)
(8.94817 -0.611632 -3.89199)
(8.99293 -0.544362 -3.89153)
(9.00967 -0.478569 -3.89126)
(9.03246 -0.416765 -3.89219)
(9.02644 -0.358274 -3.89282)
(9.03206 -0.305195 -3.89472)
(9.00814 -0.256658 -3.89581)
(9.00157 -0.214122 -3.89826)
(8.96474 -0.176456 -3.89958)
(8.95009 -0.144793 -3.9022)
(8.90502 -0.117396 -3.90364)
(8.88506 -0.0961972 -3.90591)
(8.82457 -0.0730431 -3.90757)
(6.4651 -0.0171408 -3.93804)
(6.49257 -0.0466995 -3.95589)
(6.51761 -0.0908237 -3.96864)
(6.54654 -0.145045 -3.97538)
(6.58362 -0.20584 -3.97808)
(6.62533 -0.273344 -3.9784)
(6.67379 -0.345778 -3.97671)
(6.72773 -0.42479 -3.97402)
(6.79094 -0.508065 -3.97049)
(6.86155 -0.59789 -3.96633)
(6.9451 -0.69037 -3.96197)
(7.03794 -0.787629 -3.95681)
(7.14828 -0.883937 -3.95211)
(7.26859 -0.979682 -3.94637)
(7.40949 -1.0685 -3.94083)
(7.55798 -1.14742 -3.93377)
(7.72548 -1.21134 -3.92725)
(7.89307 -1.25539 -3.91993)
(8.07176 -1.27763 -3.91291)
(8.23714 -1.27642 -3.9058)
(8.40437 -1.25533 -3.89906)
(8.54839 -1.21411 -3.89271)
(8.68921 -1.15855 -3.88724)
(8.80173 -1.09012 -3.88235)
(8.91039 -1.01422 -3.87897)
(8.98789 -0.930911 -3.87632)
(9.06392 -0.845779 -3.8751)
(9.10793 -0.758286 -3.87425)
(9.15468 -0.673464 -3.87491)
(9.16888 -0.590087 -3.87568)
(9.19105 -0.512671 -3.87799)
(9.18066 -0.439644 -3.88019)
(9.18446 -0.374378 -3.88392)
(9.15521 -0.314698 -3.88692)
(9.14618 -0.263071 -3.89124)
(9.10318 -0.216994 -3.89444)
(9.08578 -0.178816 -3.89866)
(9.03412 -0.145259 -3.90182)
(9.01183 -0.119838 -3.90529)
(8.94317 -0.0912775 -3.90877)
(6.46611 -0.0202125 -3.93799)
(6.49224 -0.0534274 -3.95537)
(6.51727 -0.103605 -3.96805)
(6.54306 -0.164989 -3.9739)
(6.57808 -0.23486 -3.97618)
(6.61518 -0.312189 -3.97552)
(6.65948 -0.396806 -3.97298)
(6.70814 -0.48908 -3.96952)
(6.76572 -0.588463 -3.96452)
(6.83212 -0.696339 -3.95997)
(6.91047 -0.809549 -3.95348)
(7.00283 -0.930683 -3.94825)
(7.11202 -1.05206 -3.94125)
(7.2391 -1.17633 -3.93519)
(7.38764 -1.29208 -3.928)
(7.55341 -1.39854 -3.91975)
(7.73982 -1.48482 -3.91215)
(7.9347 -1.54603 -3.90324)
(8.13965 -1.57664 -3.89524)
(8.33237 -1.57584 -3.8864)
(8.52479 -1.54945 -3.87893)
(8.69159 -1.49639 -3.87221)
(8.85345 -1.42581 -3.86798)
(8.983 -1.33815 -3.86466)
(9.1068 -1.24087 -3.86417)
(9.19662 -1.1372 -3.86553)
(9.28619 -1.03401 -3.87003)
(9.338 -0.928564 -3.87519)
(9.39043 -0.82452 -3.88194)
(9.40336 -0.721579 -3.88801)
(9.42338 -0.624161 -3.89465)
(9.4021 -0.531446 -3.89957)
(9.39702 -0.44807 -3.90532)
(9.35104 -0.371736 -3.90916)
(9.33129 -0.306433 -3.91435)
(9.27053 -0.248303 -3.91746)
(9.24378 -0.201164 -3.9221)
(9.17535 -0.159201 -3.92495)
(9.14572 -0.128617 -3.92825)
(9.0584 -0.0927937 -3.93138)
(6.46965 -0.0310947 -3.94093)
(6.49113 -0.0645263 -3.95501)
(6.51825 -0.116162 -3.96829)
(6.53723 -0.182803 -3.9712)
(6.57244 -0.260698 -3.97501)
(6.5999 -0.347406 -3.97077)
(6.64218 -0.444434 -3.96998)
(6.67915 -0.549843 -3.96254)
(6.73286 -0.667109 -3.95877)
(6.78764 -0.793628 -3.95087)
(6.86192 -0.931852 -3.94377)
(6.94671 -1.07932 -3.93731)
(7.05546 -1.23316 -3.92701)
(7.18523 -1.3919 -3.92199)
(7.3431 -1.54418 -3.91057)
(7.52863 -1.68726 -3.90327)
(7.73947 -1.80489 -3.8927)
(7.97201 -1.89031 -3.88411)
(8.2116 -1.93001 -3.87333)
(8.44675 -1.93251 -3.8659)
(8.67544 -1.89535 -3.86107)
(8.88252 -1.8259 -3.86065)
(9.08261 -1.74404 -3.86841)
(9.24582 -1.6402 -3.87993)
(9.38676 -1.51797 -3.89299)
(9.47929 -1.38148 -3.9043)
(9.54929 -1.23424 -3.91503)
(9.57445 -1.08505 -3.92199)
(9.59569 -0.941389 -3.92949)
(9.57685 -0.804639 -3.93233)
(9.56887 -0.680312 -3.93708)
(9.52299 -0.567109 -3.94127)
(9.49922 -0.467414 -3.94682)
(9.43406 -0.378362 -3.95084)
(9.40163 -0.302778 -3.9561)
(9.32355 -0.236335 -3.95939)
(9.28691 -0.182843 -3.96399)
(9.20079 -0.135453 -3.96647)
(9.16295 -0.101109 -3.97017)
(9.05552 -0.0604622 -3.97252)
(6.47143 -0.0317825 -3.94155)
(6.49016 -0.0697978 -3.95377)
(6.51797 -0.124608 -3.96847)
(6.53063 -0.198372 -3.96799)
(6.56394 -0.282242 -3.97424)
(6.58093 -0.379234 -3.96446)
(6.61856 -0.486027 -3.96801)
(6.641 -0.606458 -3.95212)
(6.68804 -0.739744 -3.9549)
(6.72536 -0.888656 -3.93612)
(6.7939 -1.05287 -3.93606)
(6.8613 -1.23251 -3.91973)
(6.97158 -1.42609 -3.91228)
(7.09233 -1.62731 -3.90369)
(7.26604 -1.83085 -3.88825)
(7.46855 -2.02185 -3.88467)
(7.71444 -2.18518 -3.86897)
(7.99526 -2.3037 -3.86288)
(8.29621 -2.35709 -3.85339)
(8.60077 -2.36312 -3.8614)
(8.90077 -2.32709 -3.88339)
(9.15499 -2.24145 -3.90918)
(9.34654 -2.09855 -3.93847)
(9.46779 -1.90655 -3.95167)
(9.55519 -1.70316 -3.95973)
(9.59817 -1.50357 -3.96791)
(9.6278 -1.31318 -3.97405)
(9.62187 -1.13415 -3.98166)
(9.6142 -0.965605 -3.98783)
(9.57057 -0.81068 -3.99628)
(9.53567 -0.667973 -4.00343)
(9.46207 -0.539498 -4.0078)
(9.411 -0.425494 -4.01239)
(9.31813 -0.326158 -4.0143)
(9.26165 -0.241762 -4.01747)
(9.15645 -0.170071 -4.01762)
(9.10218 -0.112564 -4.0197)
(8.99276 -0.0631642 -4.01897)
(8.94394 -0.0282534 -4.0198)
(8.81465 0.013217 -4.01886)
(6.46864 -0.0234229 -3.93783)
(6.49087 -0.068171 -3.95337)
(6.51368 -0.129227 -3.96646)
(6.52545 -0.21066 -3.96718)
(6.54914 -0.299065 -3.97073)
(6.56118 -0.405478 -3.96055)
(6.58338 -0.519567 -3.96288)
(6.59715 -0.656116 -3.94268)
(6.62237 -0.801648 -3.94895)
(6.64876 -0.979702 -3.9183)
(6.69187 -1.16392 -3.92948)
(6.74634 -1.39177 -3.89286)
(6.84256 -1.62215 -3.90145)
(6.94652 -1.88582 -3.87241)
(7.14213 -2.15778 -3.86807)
(7.35125 -2.407 -3.85991)
(7.64243 -2.64913 -3.84298)
(8.01762 -2.8138 -3.8508)
(8.44145 -2.9147 -3.88445)
(8.82057 -2.9129 -3.94733)
(9.09592 -2.75079 -3.97912)
(9.2798 -2.52201 -4.01023)
(9.39696 -2.2584 -4.02279)
(9.46324 -2.01071 -4.04533)
(9.48614 -1.76537 -4.06327)
(9.46577 -1.52904 -4.07425)
(9.4259 -1.30317 -4.08014)
(9.35608 -1.0918 -4.08272)
(9.28324 -0.894136 -4.08342)
(9.18487 -0.714763 -4.08254)
(9.09699 -0.552346 -4.08143)
(8.98296 -0.411147 -4.07897)
(8.89373 -0.287636 -4.07737)
(8.77222 -0.185283 -4.07405)
(8.69141 -0.0988148 -4.07238)
(8.56949 -0.0302661 -4.06839)
(8.50301 0.0246995 -4.06673)
(8.38351 0.0679244 -4.06295)
(8.33076 0.0981528 -4.06074)
(8.19848 0.131567 -4.05778)
(6.46409 -0.0233596 -3.93486)
(6.49163 -0.0692255 -3.95526)
(6.50767 -0.13346 -3.96254)
(6.51951 -0.216081 -3.96888)
(6.53066 -0.310964 -3.96323)
(6.53686 -0.419539 -3.96091)
(6.53994 -0.546188 -3.95094)
(6.54186 -0.688709 -3.93955)
(6.53783 -0.854835 -3.93324)
(6.55144 -1.05359 -3.90682)
(6.54797 -1.26262 -3.91289)
(6.6004 -1.55108 -3.86694)
(6.63789 -1.80318 -3.88511)
(6.7449 -2.1846 -3.83277)
(6.94295 -2.50543 -3.85452)
(7.12499 -2.8562 -3.81468)
(7.54011 -3.25738 -3.84414)
(8.10681 -3.51858 -3.93913)
(8.55113 -3.50711 -4.03033)
(8.84644 -3.26553 -4.07584)
(9.01313 -2.96936 -4.12841)
(9.07479 -2.62234 -4.16674)
(9.05473 -2.27132 -4.19024)
(8.97581 -1.92876 -4.20186)
(8.8604 -1.60904 -4.1993)
(8.71802 -1.32113 -4.18743)
(8.57192 -1.0619 -4.17148)
(8.42096 -0.830736 -4.15606)
(8.28195 -0.62307 -4.14266)
(8.14077 -0.442617 -4.13174)
(8.01883 -0.284118 -4.12285)
(7.89092 -0.153445 -4.11517)
(7.7888 -0.0413547 -4.10872)
(7.67334 0.0441221 -4.10248)
(7.59202 0.116574 -4.09728)
(7.48728 0.165475 -4.09191)
(7.42725 0.207725 -4.08731)
(7.33213 0.231893 -4.08342)
(7.29208 0.251665 -4.07878)
(7.19894 0.266884 -4.07792)
(6.45572 -0.0224024 -3.93491)
(6.49411 -0.0682389 -3.95658)
(6.49789 -0.133847 -3.96029)
(6.51488 -0.215706 -3.96925)
(6.50788 -0.3152 -3.95685)
(6.50915 -0.421105 -3.96046)
(6.49009 -0.562381 -3.93761)
(6.47002 -0.697607 -3.93808)
(6.44455 -0.900192 -3.91101)
(6.41109 -1.08699 -3.90082)
(6.38537 -1.36451 -3.88395)
(6.38169 -1.66367 -3.84731)
(6.36212 -1.98933 -3.85272)
(6.47502 -2.50394 -3.80828)
(6.58425 -2.82556 -3.80808)
(6.79506 -3.49526 -3.80704)
(7.48281 -4.08076 -4.01181)
(8.03264 -4.10898 -4.13379)
(8.31409 -3.81899 -4.22356)
(8.38158 -3.3498 -4.28878)
(8.28349 -2.81437 -4.32228)
(8.09368 -2.2874 -4.33323)
(7.84566 -1.81789 -4.3189)
(7.58692 -1.41191 -4.29409)
(7.32846 -1.07988 -4.25137)
(7.08586 -0.812516 -4.20165)
(6.88188 -0.589836 -4.15925)
(6.71274 -0.398981 -4.1294)
(6.57866 -0.231193 -4.11127)
(6.46374 -0.0875753 -4.10121)
(6.37295 0.0359559 -4.09695)
(6.28964 0.134951 -4.09361)
(6.22543 0.216689 -4.09217)
(6.16247 0.275154 -4.08935)
(6.11717 0.321448 -4.08753)
(6.07151 0.34757 -4.0841)
(6.04197 0.367962 -4.08309)
(6.01332 0.373694 -4.08026)
(5.99617 0.377819 -4.07896)
(5.98914 0.373051 -4.08571)
(6.44282 -0.0192517 -3.93838)
(6.49965 -0.0662378 -3.95685)
(6.48205 -0.126921 -3.96081)
(6.5176 -0.20957 -3.96668)
(6.47144 -0.304339 -3.95361)
(6.49155 -0.415342 -3.95627)
(6.41564 -0.551398 -3.92687)
(6.40609 -0.695847 -3.9344)
(6.31541 -0.906055 -3.88641)
(6.25211 -1.0955 -3.89829)
(6.19212 -1.43579 -3.84481)
(6.05587 -1.70442 -3.82942)
(6.07475 -2.21613 -3.8268)
(6.00117 -2.69918 -3.75378)
(6.06142 -3.25763 -3.77733)
(6.46047 -4.40154 -4.04434)
(7.15839 -4.64756 -4.27558)
(7.37638 -4.27591 -4.37242)
(7.21755 -3.57754 -4.40544)
(6.84535 -2.7181 -4.41404)
(6.39526 -1.96435 -4.39998)
(5.9635 -1.36226 -4.3662)
(5.56266 -0.919833 -4.30376)
(5.25638 -0.599774 -4.23961)
(4.97584 -0.395551 -4.13581)
(4.75945 -0.265727 -4.04736)
(4.62433 -0.153442 -3.99922)
(4.54829 -0.040201 -3.98715)
(4.51011 0.0742873 -3.99667)
(4.48809 0.17938 -4.01372)
(4.48081 0.271804 -4.03194)
(4.47894 0.343158 -4.04543)
(4.48663 0.399796 -4.05686)
(4.50025 0.434104 -4.0633)
(4.51864 0.458251 -4.06778)
(4.54626 0.464245 -4.07016)
(4.57198 0.468523 -4.07287)
(4.61974 0.455719 -4.07665)
(4.65242 0.447991 -4.07824)
(4.74482 0.429135 -4.09811)
(6.4454 -0.0219008 -3.93739)
(6.49912 -0.0676039 -3.95582)
(6.47987 -0.119854 -3.96033)
(6.50816 -0.20222 -3.96335)
(6.44865 -0.280769 -3.95246)
(6.45966 -0.402936 -3.94821)
(6.34413 -0.510479 -3.92194)
(6.33705 -0.685221 -3.92386)
(6.15142 -0.850694 -3.86578)
(6.11706 -1.09994 -3.90003)
(5.89298 -1.38489 -3.7824)
(5.7338 -1.76558 -3.85586)
(5.66333 -2.27805 -3.73851)
(5.26642 -2.87605 -3.72032)
(5.55178 -3.81702 -3.96164)
(5.70954 -4.94584 -4.39957)
(5.91179 -4.65763 -4.49931)
(5.55816 -3.78419 -4.44619)
(4.55401 -2.20719 -4.35448)
(3.77899 -1.10752 -4.29538)
(3.25873 -0.483983 -4.2418)
(2.93039 -0.175562 -4.17733)
(2.70772 -0.0591978 -4.10463)
(2.58268 0.0387873 -4.00117)
(2.32707 -0.018698 -3.82162)
(2.28915 -0.0776568 -3.77717)
(2.33108 -0.0613614 -3.79335)
(2.40786 0.0216942 -3.84747)
(2.49514 0.147786 -3.91235)
(2.57537 0.26367 -3.96427)
(2.6562 0.357847 -4.00221)
(2.73834 0.425459 -4.02724)
(2.82368 0.470034 -4.04497)
(2.91559 0.49338 -4.05655)
(3.0066 0.503865 -4.06589)
(3.11332 0.497774 -4.07194)
(3.20166 0.48979 -4.07835)
(3.33479 0.466555 -4.08658)
(3.41396 0.452781 -4.09264)
(3.62286 0.424572 -4.13254)
(6.46364 -0.0363013 -3.94062)
(6.49166 -0.0608541 -3.95283)
(6.49187 -0.115358 -3.96232)
(6.48519 -0.170401 -3.95713)
(6.44508 -0.262747 -3.95476)
(6.4064 -0.345048 -3.93568)
(6.30551 -0.475697 -3.92748)
(6.22822 -0.603071 -3.89656)
(6.03221 -0.792105 -3.87836)
(5.92038 -1.00816 -3.84799)
(5.57605 -1.30766 -3.78625)
(5.42363 -1.67943 -3.8224)
(4.9918 -2.21246 -3.65887)
(4.51785 -2.87212 -3.80817)
(4.78928 -4.02222 -4.33931)
(3.64303 -4.87917 -4.52576)
(4.09342 -4.2581 -4.62359)
(2.23466 -2.23084 -4.22805)
(0.632384 -0.236841 -4.06501)
(0.442238 0.115698 -4.03398)
(0.451174 0.0997992 -4.0128)
(0.494453 0.0615045 -3.98503)
(0.511678 0.0339175 -3.94081)
(0.482509 0.00925618 -3.84734)
(0.501394 -0.3673 -3.64911)
(0.539454 -0.449731 -3.6417)
(0.677912 -0.297637 -3.72445)
(0.784985 -0.0668482 -3.82452)
(0.895443 0.124922 -3.90767)
(1.01485 0.26571 -3.9695)
(1.14641 0.362356 -4.01166)
(1.28808 0.423095 -4.04045)
(1.43792 0.457157 -4.06103)
(1.59557 0.471193 -4.07576)
(1.75337 0.471758 -4.08787)
(1.92498 0.460579 -4.09619)
(2.07612 0.44561 -4.10658)
(2.27938 0.419914 -4.11674)
(2.40391 0.402917 -4.13235)
(2.72214 0.372749 -4.19559)
(6.46932 -0.023376 -3.94027)
(6.48892 -0.051975 -3.95178)
(6.49504 -0.0923914 -3.96166)
(6.46997 -0.146834 -3.95532)
(6.43533 -0.214073 -3.95212)
(6.35973 -0.294512 -3.9312)
(6.26543 -0.395582 -3.92161)
(6.11895 -0.513491 -3.88459)
(5.93102 -0.673137 -3.87306)
(5.69804 -0.862206 -3.81332)
(5.33813 -1.12809 -3.80367)
(5.03513 -1.45984 -3.74153)
(4.32234 -1.9438 -3.69821)
(4.01433 -2.46346 -3.9614)
(3.37404 -3.43757 -4.51985)
(1.67848 -3.757 -4.62651)
(0.104958 -0.669734 -3.64918)
(-0.274636 -0.690154 -3.6226)
(-0.335571 -0.360032 -3.75065)
(-0.340946 -0.101149 -3.85179)
(-0.257512 0.0904199 -3.93866)
(-0.132961 0.22241 -3.99812)
(0.0275365 0.306287 -4.04046)
(0.210153 0.356574 -4.07131)
(0.407596 0.38221 -4.09531)
(0.614717 0.390684 -4.11446)
(0.824815 0.387503 -4.12979)
(1.04387 0.375965 -4.14128)
(1.2486 0.359432 -4.15434)
(1.49991 0.336667 -4.16656)
(1.66584 0.318912 -4.19574)
(2.06992 0.293532 -4.28058)
(6.46527 -0.0186182 -3.93886)
(6.49093 -0.0384004 -3.95293)
(6.48878 -0.0712319 -3.95879)
(6.46672 -0.108638 -3.9568)
(6.4147 -0.162653 -3.94664)
(6.33545 -0.220909 -3.93223)
(6.21341 -0.300591 -3.91073)
(6.04835 -0.389039 -3.8855)
(5.82199 -0.514576 -3.85205)
(5.52819 -0.657812 -3.81523)
(5.1355 -0.872231 -3.77112)
(4.65967 -1.11696 -3.73719)
(3.99674 -1.48204 -3.72827)
(3.45217 -1.83192 -4.03049)
(2.99124 -2.26683 -4.61186)
(1.70941 -2.13211 -4.66813)
(-0.0645636 -0.631935 -3.69853)
(-0.666165 -0.619645 -3.63137)
(-0.926538 -0.331912 -3.76607)
(-1.03318 -0.115335 -3.87358)
(-0.993737 0.0438967 -3.96666)
(-0.876283 0.152582 -4.03012)
(-0.707523 0.218548 -4.07455)
(-0.502369 0.257714 -4.10833)
(-0.277414 0.276888 -4.13418)
(-0.0393059 0.282532 -4.15505)
(0.204262 0.279345 -4.17283)
(0.454425 0.269723 -4.18892)
(0.696712 0.255735 -4.20731)
(0.975447 0.238762 -4.22545)
(1.17727 0.223352 -4.26804)
(1.63236 0.206135 -4.36697)
(6.46885 -0.00660033 -3.93968)
(6.48982 -0.0260082 -3.95126)
(6.48641 -0.0457814 -3.95893)
(6.46101 -0.0669274 -3.95471)
(6.40408 -0.0994868 -3.94676)
(6.31402 -0.137986 -3.92768)
(6.17898 -0.186214 -3.90987)
(5.99642 -0.244398 -3.87692)
(5.73953 -0.320171 -3.84965)
(5.41975 -0.415362 -3.80112)
(4.96053 -0.5422 -3.76641)
(4.45261 -0.702177 -3.72627)
(3.64711 -0.914403 -3.72866)
(3.12031 -1.14226 -4.11729)
(2.59981 -1.47992 -4.63758)
(1.31426 -1.37994 -4.66613)
(-0.112686 -0.401403 -3.70582)
(-0.852118 -0.408989 -3.62209)
(-1.23906 -0.216988 -3.77812)
(-1.40151 -0.0868169 -3.89353)
(-1.40661 0.00925264 -3.98613)
(-1.30237 0.089078 -4.06157)
(-1.13213 0.126597 -4.10575)
(-0.919458 0.152754 -4.14227)
(-0.680193 0.164612 -4.169)
(-0.426402 0.168014 -4.19056)
(-0.164705 0.166029 -4.20913)
(0.102959 0.159625 -4.22698)
(0.366928 0.150362 -4.24908)
(0.659749 0.140041 -4.2755)
(0.887074 0.130159 -4.32882)
(1.37035 0.121346 -4.43547)
(6.47024 -0.000854585 -3.93837)
(6.48625 -0.010773 -3.95137)
(6.47999 -0.0172875 -3.95717)
(6.45479 -0.0222657 -3.95524)
(6.40076 -0.0335296 -3.94576)
(6.30066 -0.0457469 -3.92786)
(6.16553 -0.0636299 -3.907)
(5.96437 -0.0818121 -3.87641)
(5.70673 -0.109923 -3.84445)
(5.3515 -0.139318 -3.80003)
(4.8973 -0.185692 -3.76137)
(4.32779 -0.233647 -3.72835)
(3.57249 -0.300782 -3.75634)
(3.03075 -0.360785 -4.14098)
(2.53576 -0.428446 -4.67361)
(1.28055 -0.388181 -4.69241)
(-0.131397 -0.137645 -3.70537)
(-0.932091 -0.139949 -3.62097)
(-1.36907 -0.0756926 -3.78654)
(-1.55382 -0.0327634 -3.90658)
(-1.58288 -0.000895065 -3.99724)
(-1.49638 0.0293812 -4.08055)
(-1.32026 0.0409679 -4.12485)
(-1.11058 0.0503324 -4.16206)
(-0.863271 0.0543681 -4.18966)
(-0.604605 0.0554836 -4.21115)
(-0.334791 0.0548654 -4.23014)
(-0.0598823 0.0526146 -4.24856)
(0.213545 0.0493599 -4.27205)
(0.512424 0.0458634 -4.30336)
(0.752174 0.0425555 -4.36271)
(1.24627 0.0399796 -4.47229)
(6.47025 0.00085889 -3.93837)
(6.48625 0.0107679 -3.95137)
(6.48 0.017289 -3.95717)
(6.45479 0.0222672 -3.95524)
(6.40077 0.0335298 -3.94576)
(6.30066 0.0457438 -3.92786)
(6.16555 0.0636237 -3.907)
(5.96437 0.0818014 -3.8764)
(5.70676 0.109911 -3.84445)
(5.35148 0.139298 -3.80003)
(4.89735 0.185676 -3.76137)
(4.32778 0.233624 -3.72836)
(3.57254 0.300764 -3.75635)
(3.03078 0.360763 -4.14098)
(2.53578 0.428428 -4.6736)
(1.28055 0.388177 -4.69241)
(-0.131402 0.137566 -3.70537)
(-0.932106 0.139874 -3.62097)
(-1.36909 0.0756567 -3.78654)
(-1.55384 0.0327531 -3.90658)
(-1.58291 0.000903854 -3.99724)
(-1.49642 -0.0293525 -4.08055)
(-1.32029 -0.0409311 -4.12486)
(-1.11062 -0.050289 -4.16206)
(-0.863308 -0.0543217 -4.18966)
(-0.604641 -0.0554362 -4.21115)
(-0.334827 -0.0548183 -4.23014)
(-0.059915 -0.0525692 -4.24856)
(0.213514 -0.0493173 -4.27205)
(0.512393 -0.0458243 -4.30336)
(0.752145 -0.0425217 -4.36271)
(1.24624 -0.0399527 -4.47229)
(6.46885 0.00657862 -3.93967)
(6.48981 0.0260122 -3.95125)
(6.4864 0.0457816 -3.95892)
(6.46101 0.0669259 -3.95471)
(6.40408 0.0994807 -3.94676)
(6.31404 0.137978 -3.92768)
(6.17898 0.186205 -3.90987)
(5.99645 0.244388 -3.87693)
(5.73953 0.320154 -3.84965)
(5.41979 0.415351 -3.80113)
(4.96051 0.542171 -3.7664)
(4.45267 0.70216 -3.72628)
(3.64712 0.914369 -3.72864)
(3.12035 1.14224 -4.1173)
(2.59985 1.47993 -4.63757)
(1.31429 1.37995 -4.66612)
(-0.112697 0.401335 -3.70581)
(-0.852161 0.408921 -3.62209)
(-1.23912 0.216956 -3.77812)
(-1.40159 0.0868118 -3.89353)
(-1.40671 -0.00923507 -3.98613)
(-1.30248 -0.0890482 -4.06157)
(-1.13224 -0.126557 -4.10575)
(-0.919569 -0.152709 -4.14228)
(-0.680299 -0.164565 -4.169)
(-0.426507 -0.167967 -4.19056)
(-0.164809 -0.165983 -4.20913)
(0.102858 -0.159581 -4.22698)
(0.366831 -0.150321 -4.24908)
(0.659655 -0.140002 -4.2755)
(0.886985 -0.130126 -4.32882)
(1.37026 -0.12132 -4.43548)
(6.46527 0.0186157 -3.93886)
(6.49092 0.0383989 -3.95293)
(6.48878 0.0712303 -3.95879)
(6.46672 0.108633 -3.95679)
(6.4147 0.16265 -3.94664)
(6.33544 0.220901 -3.93223)
(6.21342 0.300586 -3.91072)
(6.04834 0.389023 -3.8855)
(5.82201 0.514571 -3.85204)
(5.52817 0.657782 -3.81523)
(5.13554 0.872227 -3.77113)
(4.65963 1.11691 -3.73718)
(3.99682 1.48201 -3.72831)
(3.45217 1.8319 -4.03044)
(2.99126 2.2668 -4.61184)
(1.70944 2.1321 -4.66811)
(-0.0645895 0.631888 -3.69853)
(-0.666251 0.619605 -3.63137)
(-0.92667 0.331895 -3.76607)
(-1.03334 0.115341 -3.87358)
(-0.993914 -0.0438691 -3.96666)
(-0.876467 -0.152548 -4.03012)
(-0.707716 -0.218506 -4.07455)
(-0.502559 -0.257669 -4.10833)
(-0.277603 -0.276843 -4.13418)
(-0.0394928 -0.282487 -4.15505)
(0.20408 -0.279303 -4.17283)
(0.454247 -0.269683 -4.18891)
(0.696544 -0.255698 -4.20731)
(0.975284 -0.238728 -4.22545)
(1.17711 -0.223323 -4.26805)
(1.63221 -0.206113 -4.36698)
(6.46931 0.0233808 -3.94027)
(6.48892 0.0519732 -3.95178)
(6.49503 0.0923933 -3.96166)
(6.46997 0.146829 -3.95532)
(6.43533 0.214073 -3.95212)
(6.35972 0.294505 -3.93119)
(6.26542 0.395576 -3.92161)
(6.11895 0.51348 -3.88458)
(5.93102 0.673121 -3.87306)
(5.69801 0.86219 -3.81331)
(5.33816 1.12806 -3.80368)
(5.03507 1.4598 -3.74153)
(4.32239 1.94376 -3.6982)
(4.01437 2.4634 -3.96142)
(3.3741 3.43754 -4.51986)
(1.67852 3.75704 -4.62649)
(0.104895 0.669776 -3.64919)
(-0.274782 0.69017 -3.62261)
(-0.335785 0.360038 -3.75066)
(-0.341199 0.101168 -3.85179)
(-0.257779 -0.0903899 -3.93866)
(-0.133241 -0.222373 -3.99812)
(0.0272538 -0.306247 -4.04045)
(0.209871 -0.356535 -4.07131)
(0.407319 -0.382172 -4.0953)
(0.614449 -0.390649 -4.11444)
(0.824556 -0.387471 -4.12978)
(1.04362 -0.375936 -4.14127)
(1.24836 -0.359406 -4.15433)
(1.49968 -0.336646 -4.16656)
(1.66562 -0.318894 -4.19573)
(2.06971 -0.29352 -4.28057)
(6.46364 0.0363002 -3.94062)
(6.49166 0.060856 -3.95283)
(6.49186 0.115361 -3.96232)
(6.4852 0.170394 -3.95714)
(6.44506 0.262749 -3.95476)
(6.40641 0.34504 -3.93568)
(6.30549 0.475693 -3.92747)
(6.22823 0.603064 -3.89656)
(6.03217 0.792084 -3.87835)
(5.92039 1.00817 -3.848)
(5.576 1.3076 -3.78624)
(5.42364 1.67941 -3.82242)
(4.99181 2.21238 -3.65886)
(4.51786 2.87205 -3.80819)
(4.78938 4.02215 -4.33928)
(3.64315 4.87922 -4.52574)
(4.09356 4.2582 -4.62358)
(2.2348 2.231 -4.22802)
(0.632342 0.23693 -4.06494)
(0.442116 -0.11562 -4.03391)
(0.450984 -0.0997441 -4.01274)
(0.494228 -0.0614769 -3.98499)
(0.511438 -0.0339016 -3.94078)
(0.482244 -0.00919082 -3.84731)
(0.501154 0.367427 -3.64909)
(0.539181 0.449849 -3.64169)
(0.677638 0.297696 -3.72445)
(0.784665 0.0668899 -3.82451)
(0.8951 -0.124886 -3.90765)
(1.0145 -0.265679 -3.96948)
(1.14607 -0.362326 -4.01164)
(1.28774 -0.423069 -4.04043)
(1.43759 -0.457136 -4.06101)
(1.59525 -0.471176 -4.07574)
(1.75307 -0.471745 -4.08785)
(1.92469 -0.46057 -4.09617)
(2.07584 -0.445604 -4.10656)
(2.27911 -0.419913 -4.11672)
(2.40365 -0.402918 -4.13233)
(2.7219 -0.372755 -4.19557)
(6.44541 0.0219099 -3.93739)
(6.49912 0.0676025 -3.95582)
(6.47988 0.11985 -3.96033)
(6.50815 0.202212 -3.96335)
(6.44865 0.280781 -3.95246)
(6.45964 0.402916 -3.94821)
(6.34414 0.510501 -3.92194)
(6.33701 0.685185 -3.92386)
(6.15143 0.85072 -3.86578)
(6.117 1.0999 -3.90003)
(5.89297 1.3849 -3.7824)
(5.73376 1.76551 -3.85587)
(5.6633 2.278 -3.73851)
(5.26648 2.87593 -3.72036)
(5.55181 3.81677 -3.96162)
(5.70975 4.94577 -4.39943)
(5.91201 4.65762 -4.49915)
(5.55841 3.78429 -4.446)
(4.5541 2.20734 -4.35421)
(3.7788 1.10745 -4.2951)
(3.25841 0.483794 -4.24156)
(2.93001 0.175381 -4.17713)
(2.70734 0.0590718 -4.10447)
(2.58228 -0.0388773 -4.00102)
(2.32664 0.0186857 -3.8215)
(2.28874 0.0776998 -3.77708)
(2.33069 0.0614131 -3.79328)
(2.40749 -0.0216556 -3.84741)
(2.49478 -0.147761 -3.9123)
(2.57503 -0.263655 -3.96423)
(2.65588 -0.357841 -4.00217)
(2.73803 -0.42546 -4.02721)
(2.82338 -0.470042 -4.04494)
(2.91532 -0.493392 -4.05652)
(3.00634 -0.50388 -4.06586)
(3.11307 -0.497793 -4.07191)
(3.20142 -0.489811 -4.07832)
(3.33456 -0.466579 -4.08655)
(3.41374 -0.452808 -4.09261)
(3.62266 -0.424602 -4.13252)
(6.4428 0.0192252 -3.93838)
(6.49965 0.0662258 -3.95686)
(6.48204 0.126873 -3.96079)
(6.5176 0.209594 -3.96669)
(6.47144 0.304295 -3.9536)
(6.49155 0.415382 -3.95629)
(6.41562 0.551352 -3.92684)
(6.40609 0.695895 -3.93444)
(6.31537 0.905997 -3.88636)
(6.2521 1.09556 -3.89835)
(6.19206 1.4357 -3.84475)
(6.05585 1.70449 -3.8295)
(6.07471 2.21597 -3.82679)
(6.00109 2.69917 -3.75382)
(6.06154 3.25737 -3.77753)
(6.46062 4.4012 -4.04434)
(7.15863 4.64731 -4.2754)
(7.37676 4.27566 -4.37218)
(7.21795 3.57747 -4.40514)
(6.84565 2.71814 -4.41369)
(6.39539 1.9644 -4.39961)
(5.96345 1.36224 -4.36586)
(5.56244 0.919727 -4.30347)
(5.25607 0.599608 -4.23938)
(4.97551 0.395374 -4.13562)
(4.75914 0.265574 -4.04721)
(4.62404 0.153322 -3.99909)
(4.54805 0.0401105 -3.98703)
(4.5099 -0.0743574 -3.99658)
(4.4879 -0.179437 -4.01365)
(4.48064 -0.271855 -4.03187)
(4.47879 -0.343207 -4.04537)
(4.48649 -0.399844 -4.05682)
(4.50013 -0.434152 -4.06326)
(4.51853 -0.458299 -4.06774)
(4.54616 -0.464294 -4.07013)
(4.57188 -0.468572 -4.07284)
(4.61965 -0.45577 -4.07662)
(4.65233 -0.448042 -4.07821)