/*--------------------------------*- C++ -*----------------------------------*\
| =========                 |                                                 |
| \\      /  F ield         | OpenFOAM: The Open Source CFD Toolbox           |
|  \\    /   O peration     | Version:  2412                                  |
|   \\  /    A nd           | Website:  www.openfoam.com                      |
|    \\/     M anipulation  |                                                 |
\*---------------------------------------------------------------------------*/
FoamFile
{
    version     2.0;
    format      ascii;
    arch        "LSB;label=32;scalar=64";
    class       volVectorField;
    location    "5";
    object      U3;
}
// * * * * * * * * * * * * * * * * * * * * * * * * * * * * * * * * * * * * * //

dimensions      [0 1 -1 0 0 0 0];

internalField   nonuniform List<vector> 
47360
(
(7.19576 -0.00155357 -5.28504)
(7.21449 -0.00276671 -5.29997)
(7.23349 -0.00534259 -5.31218)
(7.25703 -0.0086503 -5.32035)
(7.28759 -0.0123648 -5.32565)
(7.32355 -0.0164884 -5.32884)
(7.36531 -0.020976 -5.3305)
(7.41264 -0.0257438 -5.33108)
(7.46644 -0.0307422 -5.33091)
(7.52616 -0.0358924 -5.33012)
(7.59256 -0.0411056 -5.32894)
(7.66485 -0.0463066 -5.32733)
(7.74358 -0.0513376 -5.3255)
(7.82755 -0.0561249 -5.32332)
(7.91696 -0.0604296 -5.32108)
(8.01012 -0.0642202 -5.31855)
(8.10681 -0.0671891 -5.3161)
(8.20486 -0.0694252 -5.31341)
(8.30383 -0.0705768 -5.31098)
(8.40125 -0.0709361 -5.30834)
(8.49677 -0.0701048 -5.30616)
(8.58788 -0.0686437 -5.30379)
(8.67469 -0.0659964 -5.30207)
(8.75478 -0.063109 -5.30011)
(8.82889 -0.0590029 -5.29896)
(8.89479 -0.0552997 -5.29745)
(8.95384 -0.0501312 -5.29689)
(9.00398 -0.0462707 -5.29582)
(9.04723 -0.0404533 -5.29578)
(9.08141 -0.0368904 -5.29507)
(9.10948 -0.0310853 -5.29545)
(9.12845 -0.0275392 -5.29488)
(9.14274 -0.0223628 -5.29586)
(9.1492 -0.0199496 -5.29523)
(9.15036 -0.0146301 -5.29652)
(9.14627 -0.0129708 -5.2961)
(9.14033 -0.00955843 -5.2973)
(9.12523 -0.00758192 -5.2968)
(9.11449 -0.00535389 -5.29769)
(9.08384 -0.00319193 -5.29701)
(7.19489 -0.00289593 -5.28467)
(7.21446 -0.0076251 -5.29969)
(7.23343 -0.0155563 -5.31197)
(7.25661 -0.0253532 -5.32005)
(7.28723 -0.0367781 -5.32529)
(7.32281 -0.0493912 -5.32841)
(7.36467 -0.0630907 -5.32996)
(7.41158 -0.0774876 -5.33042)
(7.46555 -0.0926195 -5.3301)
(7.52487 -0.108085 -5.32921)
(7.59172 -0.123901 -5.32786)
(7.66389 -0.139537 -5.32616)
(7.74357 -0.154909 -5.32414)
(7.82788 -0.169319 -5.32191)
(7.91889 -0.182594 -5.31947)
(8.0129 -0.193966 -5.31691)
(8.11183 -0.203268 -5.31424)
(8.2111 -0.20984 -5.31154)
(8.31271 -0.213684 -5.30884)
(8.41135 -0.21442 -5.30623)
(8.50955 -0.21233 -5.30372)
(8.60148 -0.207355 -5.30142)
(8.69077 -0.199948 -5.29931)
(8.77097 -0.190337 -5.29749)
(8.8473 -0.178929 -5.29591)
(8.91238 -0.166277 -5.29462)
(8.9735 -0.152406 -5.29362)
(9.02183 -0.13843 -5.2928)
(9.06711 -0.123508 -5.2924)
(9.09862 -0.109758 -5.2919)
(9.12864 -0.0949577 -5.29208)
(9.14458 -0.0825222 -5.2917)
(9.16097 -0.0688867 -5.29243)
(9.16331 -0.0586059 -5.29204)
(9.16761 -0.0463439 -5.29329)
(9.15928 -0.0384557 -5.29285)
(9.15402 -0.0288416 -5.29418)
(9.13669 -0.0225266 -5.29378)
(9.12586 -0.0160621 -5.29475)
(9.09356 -0.00954928 -5.29419)
(7.19499 -0.00452396 -5.28464)
(7.21437 -0.0127843 -5.29955)
(7.23337 -0.0258429 -5.31183)
(7.25613 -0.0422351 -5.31972)
(7.28661 -0.0612895 -5.32478)
(7.3215 -0.082401 -5.32765)
(7.36315 -0.10528 -5.32899)
(7.40932 -0.129484 -5.32916)
(7.46325 -0.154899 -5.32861)
(7.52208 -0.18107 -5.32742)
(7.58942 -0.20783 -5.32582)
(7.66174 -0.234498 -5.32383)
(7.74285 -0.260711 -5.32157)
(7.82835 -0.285491 -5.31906)
(7.92203 -0.308298 -5.31638)
(8.01843 -0.328023 -5.31356)
(8.12123 -0.344087 -5.31064)
(8.2238 -0.35561 -5.30767)
(8.32997 -0.362253 -5.30469)
(8.43209 -0.363699 -5.30178)
(8.53477 -0.360076 -5.29897)
(8.62958 -0.351676 -5.29635)
(8.72263 -0.338916 -5.29395)
(8.80458 -0.32255 -5.29182)
(8.88366 -0.303015 -5.28999)
(8.9492 -0.281384 -5.28844)
(9.01206 -0.257865 -5.28726)
(9.05955 -0.233774 -5.28627)
(9.10579 -0.208911 -5.28577)
(9.13528 -0.184783 -5.28521)
(9.16587 -0.16073 -5.28536)
(9.17868 -0.138396 -5.28505)
(9.19555 -0.116715 -5.2858)
(9.19392 -0.0975646 -5.28557)
(9.19914 -0.0791014 -5.28681)
(9.1863 -0.0639058 -5.28654)
(9.18148 -0.0488122 -5.28798)
(9.16031 -0.0374275 -5.28773)
(9.14907 -0.0269491 -5.28888)
(9.11348 -0.015892 -5.28849)
(7.19515 -0.00616301 -5.2846)
(7.21431 -0.0178737 -5.29941)
(7.23327 -0.0360573 -5.3116)
(7.25544 -0.058993 -5.3192)
(7.28556 -0.0856549 -5.32401)
(7.31947 -0.115317 -5.32647)
(7.36057 -0.147514 -5.3275)
(7.40565 -0.181771 -5.32721)
(7.45922 -0.217855 -5.3263)
(7.51732 -0.255244 -5.32463)
(7.58505 -0.293668 -5.32266)
(7.65766 -0.332182 -5.32019)
(7.74057 -0.370295 -5.31754)
(7.82804 -0.406494 -5.31461)
(7.92546 -0.440092 -5.31154)
(8.02584 -0.46921 -5.30832)
(8.13432 -0.493176 -5.30499)
(8.24245 -0.51032 -5.30163)
(8.35542 -0.520426 -5.29821)
(8.46348 -0.522634 -5.29487)
(8.57274 -0.517587 -5.29158)
(8.67259 -0.505247 -5.2885)
(8.77099 -0.486826 -5.28563)
(8.85632 -0.462822 -5.28306)
(8.93905 -0.43466 -5.28085)
(9.00601 -0.403021 -5.27893)
(9.07085 -0.369254 -5.2775)
(9.11789 -0.334067 -5.27624)
(9.16473 -0.29857 -5.27564)
(9.19217 -0.263379 -5.27496)
(9.22247 -0.229301 -5.27516)
(9.23193 -0.196799 -5.27489)
(9.24803 -0.166353 -5.27578)
(9.24216 -0.138359 -5.27574)
(9.24659 -0.112762 -5.27714)
(9.22881 -0.0902267 -5.27718)
(9.22369 -0.0699157 -5.27879)
(9.19749 -0.0528461 -5.27884)
(9.18531 -0.0384525 -5.28021)
(9.14499 -0.0225248 -5.28018)
(7.19528 -0.00785307 -5.28457)
(7.21426 -0.0229478 -5.29925)
(7.23304 -0.0461642 -5.31128)
(7.25448 -0.0756247 -5.31851)
(7.28389 -0.109809 -5.32298)
(7.31649 -0.148112 -5.32487)
(7.35656 -0.189708 -5.32548)
(7.40008 -0.234396 -5.3245)
(7.45279 -0.281568 -5.32315)
(7.50973 -0.331002 -5.32072)
(7.57757 -0.381977 -5.31828)
(7.65035 -0.433686 -5.31506)
(7.73535 -0.485098 -5.31193)
(7.82538 -0.534484 -5.3083)
(7.92772 -0.580604 -5.30475)
(8.03368 -0.620938 -5.30092)
(8.15 -0.654348 -5.29709)
(8.2662 -0.678418 -5.29313)
(8.38874 -0.692723 -5.28914)
(8.50551 -0.696053 -5.28516)
(8.62396 -0.689395 -5.28126)
(8.73125 -0.672673 -5.27752)
(8.837 -0.647727 -5.27407)
(8.92738 -0.61512 -5.2709)
(9.015 -0.577093 -5.2682)
(9.08436 -0.53433 -5.26583)
(9.15168 -0.489056 -5.26412)
(9.19865 -0.441728 -5.26261)
(9.24594 -0.394367 -5.26193)
(9.27125 -0.347144 -5.2612)
(9.30053 -0.301837 -5.2615)
(9.30633 -0.258328 -5.26137)
(9.32061 -0.21812 -5.26251)
(9.31003 -0.180739 -5.26279)
(9.3125 -0.147381 -5.26453)
(9.28927 -0.117195 -5.26505)
(9.28269 -0.0913628 -5.26703)
(9.25079 -0.0683581 -5.26765)
(9.23706 -0.050141 -5.26937)
(9.19088 -0.0291511 -5.27005)
(7.19517 -0.0103947 -5.28444)
(7.21427 -0.0287666 -5.29904)
(7.23252 -0.0568028 -5.31079)
(7.25328 -0.092518 -5.31765)
(7.2813 -0.133981 -5.32158)
(7.31245 -0.18082 -5.32287)
(7.3505 -0.231798 -5.32281)
(7.39213 -0.287212 -5.32104)
(7.44288 -0.345956 -5.31899)
(7.49826 -0.40842 -5.31562)
(7.56532 -0.473122 -5.3125)
(7.63809 -0.539807 -5.30823)
(7.725 -0.606479 -5.30449)
(7.81811 -0.671508 -5.29984)
(7.92645 -0.732703 -5.2957)
(8.03974 -0.78684 -5.29097)
(8.16644 -0.83208 -5.28653)
(8.2937 -0.864885 -5.28178)
(8.4293 -0.884564 -5.27707)
(8.55807 -0.889389 -5.27232)
(8.68903 -0.880915 -5.26763)
(8.80652 -0.858963 -5.26312)
(8.92221 -0.826373 -5.25898)
(9.01961 -0.783775 -5.25519)
(9.11379 -0.734246 -5.25198)
(9.18665 -0.678562 -5.24922)
(9.25735 -0.619968 -5.24725)
(9.30481 -0.558873 -5.2457)
(9.353 -0.49818 -5.24515)
(9.3763 -0.437721 -5.24479)
(9.40458 -0.380093 -5.2456)
(9.40639 -0.324554 -5.24615)
(9.41839 -0.273566 -5.24795)
(9.40255 -0.225905 -5.249)
(9.40228 -0.183816 -5.2514)
(9.37315 -0.145384 -5.25275)
(9.364 -0.113092 -5.25533)
(9.32593 -0.0837401 -5.25684)
(9.31032 -0.0613713 -5.25907)
(9.25728 -0.0347668 -5.26088)
(7.19496 -0.0140809 -5.28412)
(7.21431 -0.0354354 -5.29872)
(7.23175 -0.0682907 -5.31004)
(7.25173 -0.110124 -5.31657)
(7.27759 -0.158644 -5.31968)
(7.307 -0.213637 -5.32045)
(7.34174 -0.273893 -5.3193)
(7.38108 -0.340162 -5.31686)
(7.42808 -0.410958 -5.31354)
(7.48155 -0.487502 -5.30931)
(7.54591 -0.567247 -5.3049)
(7.61863 -0.651248 -5.29956)
(7.70617 -0.735558 -5.29473)
(7.80318 -0.819825 -5.28884)
(7.91785 -0.89938 -5.28388)
(8.04087 -0.971322 -5.27794)
(8.18049 -1.03156 -5.27283)
(8.32299 -1.076 -5.26705)
(8.47583 -1.10238 -5.26163)
(8.62096 -1.1093 -5.25593)
(8.76861 -1.09857 -5.25051)
(8.89985 -1.07019 -5.24518)
(9.02884 -1.02805 -5.24055)
(9.13604 -0.973483 -5.23626)
(9.23977 -0.91061 -5.23327)
(9.31818 -0.83991 -5.23085)
(9.39456 -0.76575 -5.22972)
(9.44359 -0.688159 -5.22892)
(9.49428 -0.611482 -5.22956)
(9.51599 -0.534895 -5.23034)
(9.54421 -0.462598 -5.2326)
(9.54232 -0.3932 -5.23484)
(9.55275 -0.330207 -5.23852)
(9.53155 -0.27133 -5.24156)
(9.52891 -0.219967 -5.24589)
(9.49348 -0.172813 -5.24921)
(9.48163 -0.133747 -5.25346)
(9.43665 -0.0978081 -5.25676)
(9.41863 -0.0710228 -5.26027)
(9.35697 -0.0385684 -5.26393)
(7.19569 -0.01982 -5.28404)
(7.21408 -0.0439818 -5.29824)
(7.23146 -0.0811044 -5.30947)
(7.24913 -0.127858 -5.31513)
(7.27328 -0.182782 -5.31769)
(7.29908 -0.245048 -5.31737)
(7.3303 -0.314694 -5.31517)
(7.36527 -0.391578 -5.31169)
(7.40745 -0.475506 -5.30672)
(7.45708 -0.566989 -5.30166)
(7.51685 -0.664022 -5.295)
(7.58839 -0.767881 -5.289)
(7.67457 -0.87337 -5.28181)
(7.77595 -0.981407 -5.27509)
(7.89642 -1.08408 -5.26842)
(8.03238 -1.17934 -5.2613)
(8.18721 -1.25934 -5.25534)
(8.35139 -1.31933 -5.24847)
(8.5261 -1.35432 -5.24258)
(8.69426 -1.36366 -5.23591)
(8.86358 -1.34984 -5.23019)
(9.01522 -1.31356 -5.22504)
(9.16291 -1.25957 -5.22178)
(9.28552 -1.18938 -5.21915)
(9.40346 -1.10891 -5.21899)
(9.49322 -1.02059 -5.22048)
(9.58024 -0.929035 -5.22453)
(9.63621 -0.835064 -5.22949)
(9.69291 -0.741396 -5.23603)
(9.71408 -0.647097 -5.24203)
(9.74216 -0.557049 -5.24879)
(9.73162 -0.469633 -5.25394)
(9.73525 -0.38997 -5.25979)
(9.69997 -0.315596 -5.26393)
(9.68827 -0.251252 -5.26925)
(9.63685 -0.192523 -5.27269)
(9.6167 -0.144683 -5.27748)
(9.5563 -0.100521 -5.28072)
(9.53147 -0.0686226 -5.28417)
(9.45242 -0.0288302 -5.28792)
(7.19809 -0.0297519 -5.28692)
(7.21318 -0.0533067 -5.29799)
(7.23208 -0.0906668 -5.30947)
(7.24481 -0.14133 -5.31254)
(7.26877 -0.202848 -5.31615)
(7.2873 -0.272865 -5.31263)
(7.31635 -0.352678 -5.31143)
(7.34223 -0.440297 -5.30425)
(7.38047 -0.538648 -5.29965)
(7.42075 -0.645504 -5.29126)
(7.4762 -0.762778 -5.28338)
(7.54119 -0.888609 -5.27564)
(7.62595 -1.02067 -5.26511)
(7.72848 -1.15739 -5.25843)
(7.85566 -1.29067 -5.24778)
(8.00618 -1.41638 -5.24105)
(8.18047 -1.52358 -5.23286)
(8.3742 -1.60468 -5.2268)
(8.57753 -1.64958 -5.21931)
(8.78042 -1.66404 -5.21465)
(8.97979 -1.64279 -5.21156)
(9.16681 -1.59718 -5.21293)
(9.343 -1.52912 -5.21939)
(9.49389 -1.44553 -5.23033)
(9.62831 -1.34542 -5.24269)
(9.72536 -1.23414 -5.25436)
(9.80676 -1.11353 -5.26626)
(9.84609 -0.985529 -5.27427)
(9.87959 -0.858539 -5.28215)
(9.87536 -0.733459 -5.28573)
(9.87843 -0.616973 -5.29054)
(9.84545 -0.50912 -5.29503)
(9.83221 -0.412671 -5.30079)
(9.77859 -0.324832 -5.30527)
(9.75514 -0.249314 -5.31089)
(9.68658 -0.181243 -5.31472)
(9.65658 -0.125977 -5.31977)
(9.57784 -0.0752342 -5.32278)
(9.54448 -0.0384926 -5.32684)
(9.44405 0.00697471 -5.32973)
(7.19932 -0.0310828 -5.28728)
(7.21245 -0.0578961 -5.29681)
(7.23181 -0.0977794 -5.30941)
(7.23992 -0.153475 -5.30961)
(7.26212 -0.219993 -5.3149)
(7.2727 -0.297659 -5.30656)
(7.29746 -0.385965 -5.30827)
(7.312 -0.485121 -5.29377)
(7.3439 -0.597191 -5.29357)
(7.37027 -0.721727 -5.27579)
(7.41961 -0.860361 -5.27242)
(7.47052 -1.01254 -5.25608)
(7.55445 -1.17636 -5.24648)
(7.64943 -1.34862 -5.23655)
(7.78725 -1.5231 -5.22123)
(7.95021 -1.68891 -5.21727)
(8.15187 -1.83443 -5.20534)
(8.3832 -1.94339 -5.20221)
(8.63454 -2.0031 -5.19693)
(8.89239 -2.02221 -5.20545)
(9.15071 -2.0044 -5.22667)
(9.37263 -1.94176 -5.25025)
(9.56016 -1.84456 -5.27851)
(9.69095 -1.70607 -5.29715)
(9.79057 -1.54767 -5.30898)
(9.84754 -1.38211 -5.31892)
(9.88921 -1.21653 -5.32537)
(9.89782 -1.05712 -5.33294)
(9.90366 -0.903011 -5.33901)
(9.87541 -0.759667 -5.34736)
(9.85424 -0.624728 -5.35437)
(9.79527 -0.500611 -5.35917)
(9.75642 -0.388317 -5.36397)
(9.67617 -0.288271 -5.36644)
(9.62972 -0.20191 -5.37011)
(9.53464 -0.126392 -5.37115)
(9.48771 -0.0653399 -5.37389)
(9.38591 -0.0107262 -5.37404)
(9.34171 0.0276905 -5.37557)
(9.21993 0.0751965 -5.37545)
(7.1973 -0.0249703 -5.28341)
(7.21306 -0.0567474 -5.29616)
(7.22858 -0.102339 -5.30757)
(7.23609 -0.163408 -5.30869)
(7.25076 -0.233959 -5.31138)
(7.25746 -0.317792 -5.30233)
(7.2697 -0.413227 -5.30233)
(7.27718 -0.523331 -5.28375)
(7.29104 -0.647744 -5.28534)
(7.30807 -0.793026 -5.25716)
(7.33611 -0.950605 -5.26149)
(7.37564 -1.13937 -5.22786)
(7.44643 -1.3341 -5.22949)
(7.52768 -1.55672 -5.20262)
(7.67918 -1.78507 -5.1939)
(7.84762 -2.00088 -5.18721)
(8.08371 -2.20796 -5.17396)
(8.38378 -2.35315 -5.18174)
(8.73151 -2.45946 -5.21464)
(9.05135 -2.47026 -5.26935)
(9.30629 -2.38984 -5.31065)
(9.49184 -2.24664 -5.34951)
(9.61801 -2.0599 -5.37103)
(9.69399 -1.86481 -5.39301)
(9.73177 -1.6634 -5.41059)
(9.72843 -1.46047 -5.4214)
(9.70629 -1.25948 -5.42691)
(9.65449 -1.06586 -5.42934)
(9.59934 -0.880388 -5.4296)
(9.51873 -0.708362 -5.4287)
(9.44772 -0.549489 -5.42739)
(9.35003 -0.408389 -5.42562)
(9.27596 -0.282635 -5.42429)
(9.16843 -0.17563 -5.42216)
(9.09958 -0.0836378 -5.42128)
(8.98881 -0.00803827 -5.41868)
(8.93072 0.0533198 -5.41799)
(8.8199 0.104091 -5.41544)
(8.77206 0.139687 -5.41415)
(8.64621 0.181335 -5.41234)
(7.19394 -0.0249249 -5.28079)
(7.21376 -0.0575892 -5.29756)
(7.22401 -0.105569 -5.30418)
(7.23191 -0.16744 -5.3097)
(7.23636 -0.243296 -5.30456)
(7.23907 -0.328157 -5.30139)
(7.23504 -0.434651 -5.29075)
(7.23404 -0.547663 -5.27847)
(7.22251 -0.691289 -5.26887)
(7.23026 -0.849262 -5.24284)
(7.21845 -1.03154 -5.24184)
(7.25627 -1.26311 -5.19847)
(7.27793 -1.48082 -5.20764)
(7.35996 -1.7918 -5.15758)
(7.51007 -2.06366 -5.17227)
(7.65931 -2.35938 -5.13927)
(7.98107 -2.67906 -5.15464)
(8.42697 -2.91822 -5.23909)
(8.80348 -2.96184 -5.33124)
(9.07599 -2.8574 -5.39839)
(9.24135 -2.66681 -5.45641)
(9.31144 -2.42063 -5.49976)
(9.30574 -2.15089 -5.52587)
(9.24281 -1.87159 -5.53944)
(9.14477 -1.5968 -5.53852)
(9.02079 -1.33791 -5.52771)
(8.89382 -1.0962 -5.5116)
(8.76189 -0.874549 -5.49552)
(8.64285 -0.670991 -5.48093)
(8.52118 -0.490234 -5.4695)
(8.41915 -0.328425 -5.46017)
(8.30962 -0.191382 -5.45329)
(8.22492 -0.0715078 -5.44768)
(8.12472 0.0239071 -5.44334)
(8.05699 0.106138 -5.43968)
(7.96337 0.166394 -5.4366)
(7.91236 0.217899 -5.43379)
(7.82452 0.253106 -5.43207)
(7.78882 0.27977 -5.42907)
(7.69941 0.305586 -5.43016)
(7.18783 -0.0242119 -5.28058)
(7.2157 -0.057264 -5.29855)
(7.21661 -0.106158 -5.30206)
(7.22872 -0.167577 -5.30958)
(7.21857 -0.24689 -5.29855)
(7.21827 -0.32951 -5.29962)
(7.19498 -0.447775 -5.27799)
(7.17874 -0.554413 -5.27396)
(7.14576 -0.727407 -5.24721)
(7.12066 -0.87448 -5.23142)
(7.08191 -1.11386 -5.2124)
(7.08487 -1.34809 -5.1715)
(7.04619 -1.63122 -5.17262)
(7.14131 -2.03728 -5.11889)
(7.21534 -2.3258 -5.13179)
(7.37782 -2.82831 -5.09612)
(7.90435 -3.33332 -5.26265)
(8.35229 -3.4489 -5.40123)
(8.61431 -3.33302 -5.51795)
(8.68254 -3.04392 -5.60093)
(8.5934 -2.66651 -5.64417)
(8.4054 -2.25766 -5.65964)
(8.1615 -1.86306 -5.6477)
(7.90638 -1.5003 -5.62504)
(7.65868 -1.18594 -5.58446)
(7.43324 -0.920138 -5.5356)
(7.24925 -0.691811 -5.49171)
(7.10078 -0.493172 -5.46008)
(6.98876 -0.317044 -5.44027)
(6.89574 -0.164469 -5.42972)
(6.82698 -0.0310339 -5.425)
(6.76366 0.0790144 -5.42334)
(6.71863 0.172663 -5.42378)
(6.67096 0.243635 -5.42433)
(6.64032 0.302747 -5.42511)
(6.6038 0.341147 -5.42576)
(6.58449 0.373469 -5.42661)
(6.5588 0.389869 -5.42838)
(6.548 0.402205 -5.42739)
(6.53828 0.408266 -5.43762)
(7.17885 -0.0233164 -5.28286)
(7.21955 -0.0581602 -5.29874)
(7.20529 -0.102337 -5.30191)
(7.23038 -0.164334 -5.30721)
(7.19148 -0.239382 -5.29483)
(7.20389 -0.325443 -5.29501)
(7.13768 -0.439662 -5.26693)
(7.1277 -0.551761 -5.26783)
(7.04342 -0.732094 -5.22317)
(6.99406 -0.880036 -5.22186)
(6.92289 -1.16762 -5.17524)
(6.83055 -1.38063 -5.14255)
(6.79428 -1.80478 -5.14054)
(6.78275 -2.19803 -5.06268)
(6.76853 -2.64288 -5.07758)
(7.09089 -3.50356 -5.2283)
(7.63293 -3.90898 -5.48353)
(7.81978 -3.70795 -5.65394)
(7.68971 -3.32586 -5.70993)
(7.29803 -2.70433 -5.72568)
(6.81018 -2.08196 -5.70947)
(6.33589 -1.53793 -5.67644)
(5.91769 -1.10616 -5.61945)
(5.6005 -0.776464 -5.56364)
(5.33667 -0.546084 -5.46932)
(5.14942 -0.38348 -5.3842)
(5.04215 -0.245801 -5.33403)
(4.99151 -0.116856 -5.31795)
(4.9774 0.00689677 -5.32335)
(4.97892 0.119163 -5.33816)
(4.99413 0.219039 -5.35542)
(5.0127 0.299577 -5.37091)
(5.03855 0.36649 -5.38551)
(5.06638 0.412189 -5.39642)
(5.09668 0.448485 -5.40528)
(5.13264 0.465402 -5.41222)
(5.16369 0.481126 -5.41844)
(5.21421 0.477181 -5.42615)
(5.24668 0.478818 -5.42998)
(5.33172 0.466933 -5.45211)
(7.18111 -0.0214386 -5.28204)
(7.21865 -0.0541937 -5.2983)
(7.20457 -0.0933083 -5.30133)
(7.22206 -0.154916 -5.30498)
(7.17578 -0.218805 -5.29246)
(7.17769 -0.313063 -5.28854)
(7.08481 -0.406151 -5.25891)
(7.06895 -0.542569 -5.25865)
(6.91979 -0.687618 -5.19815)
(6.87619 -0.87976 -5.22133)
(6.69704 -1.12971 -5.11208)
(6.55332 -1.41738 -5.15277)
(6.48311 -1.85804 -5.05901)
(6.18469 -2.31571 -5.00912)
(6.31167 -3.00938 -5.1505)
(6.53642 -4.11885 -5.53559)
(6.59866 -4.02157 -5.72579)
(6.28806 -3.52485 -5.73798)
(5.36266 -2.48037 -5.64197)
(4.4042 -1.47683 -5.57213)
(3.71343 -0.808046 -5.53186)
(3.28952 -0.425278 -5.49379)
(3.04917 -0.233632 -5.44032)
(2.93434 -0.0978459 -5.35956)
(2.75836 -0.0863226 -5.18722)
(2.76435 -0.0864984 -5.12842)
(2.8218 -0.055761 -5.13113)
(2.92283 0.0306409 -5.1744)
(3.02957 0.143041 -5.23042)
(3.13129 0.249563 -5.27996)
(3.23246 0.340601 -5.31955)
(3.33234 0.410102 -5.34979)
(3.4319 0.460945 -5.37373)
(3.53442 0.491779 -5.39157)
(3.63208 0.511838 -5.40691)
(3.74287 0.514089 -5.41812)
(3.83162 0.515889 -5.42916)
(3.96217 0.499547 -5.4412)
(4.03736 0.493567 -5.44961)
(4.22878 0.469771 -5.49036)
(7.19413 -0.0323272 -5.28526)
(7.2123 -0.0493298 -5.29592)
(7.21466 -0.0902271 -5.30247)
(7.20269 -0.129871 -5.29988)
(7.17608 -0.204935 -5.29307)
(7.13212 -0.267796 -5.27792)
(7.05985 -0.37848 -5.26022)
(6.97664 -0.477125 -5.23555)
(6.83308 -0.639222 -5.20015)
(6.71006 -0.806295 -5.17994)
(6.46051 -1.06113 -5.09372)
(6.27591 -1.35287 -5.13157)
(5.99552 -1.78886 -4.95918)
(5.51373 -2.33954 -5.05659)
(5.78409 -3.22307 -5.40679)
(4.83977 -4.16295 -5.65686)
(4.96003 -3.85137 -5.84755)
(3.59552 -2.63248 -5.47476)
(1.67334 -0.854081 -5.26723)
(0.958579 -0.184261 -5.32525)
(0.79025 -0.0294773 -5.35437)
(0.795264 -0.000503568 -5.34298)
(0.823945 -0.00662932 -5.30679)
(0.822069 -0.0011068 -5.22014)
(0.875007 -0.226491 -5.02825)
(0.974141 -0.283114 -4.98749)
(1.14302 -0.174759 -5.04923)
(1.29991 0.0012728 -5.13759)
(1.45126 0.158145 -5.21769)
(1.60296 0.280586 -5.28148)
(1.75893 0.370149 -5.3304)
(1.91808 0.430518 -5.36716)
(2.07883 0.468788 -5.39578)
(2.24355 0.488135 -5.4175)
(2.4025 0.496355 -5.4364)
(2.57504 0.490965 -5.44975)
(2.72015 0.484253 -5.46533)
(2.91788 0.463076 -5.47876)
(3.03357 0.45285 -5.49617)
(3.32344 0.424399 -5.55753)
(7.19801 -0.0237163 -5.28497)
(7.21073 -0.0423338 -5.29431)
(7.21588 -0.0747276 -5.30208)
(7.19308 -0.111638 -5.29684)
(7.16626 -0.169338 -5.29135)
(7.09996 -0.227389 -5.27108)
(7.02371 -0.317373 -5.25615)
(6.89765 -0.403489 -5.21928)
(6.74389 -0.546508 -5.19676)
(6.54563 -0.68489 -5.13942)
(6.25128 -0.922497 -5.10612)
(5.99188 -1.16319 -5.05147)
(5.43237 -1.59852 -4.96902)
(5.09697 -1.97284 -5.13696)
(4.64369 -2.88052 -5.56084)
(3.01665 -3.28418 -5.70967)
(0.303112 -0.481993 -5.0078)
(0.0769875 -0.507552 -4.95817)
(0.0864343 -0.277494 -5.05879)
(0.171952 -0.0584265 -5.15724)
(0.307857 0.111169 -5.24692)
(0.469489 0.234314 -5.31507)
(0.653925 0.317646 -5.36748)
(0.851458 0.37107 -5.40757)
(1.05616 0.402331 -5.43972)
(1.26678 0.416469 -5.46529)
(1.47357 0.420118 -5.48717)
(1.69128 0.413275 -5.503)
(1.88396 0.403745 -5.52171)
(2.12943 0.383867 -5.53623)
(2.27997 0.372285 -5.56631)
(2.64731 0.346239 -5.64602)
(7.19509 -0.0183441 -5.2836)
(7.21232 -0.0311163 -5.29533)
(7.21119 -0.0572497 -5.29942)
(7.19044 -0.0826424 -5.29799)
(7.15085 -0.128243 -5.28627)
(7.08115 -0.170506 -5.27122)
(6.98365 -0.240722 -5.24579)
(6.84187 -0.305658 -5.21764)
(6.65807 -0.417643 -5.17698)
(6.41022 -0.522317 -5.13443)
(6.08808 -0.713596 -5.07685)
(5.69463 -0.890836 -5.0311)
(5.14493 -1.22466 -4.98598)
(4.65541 -1.47697 -5.16306)
(4.22851 -1.95188 -5.65661)
(2.89043 -1.91104 -5.77143)
(0.113598 -0.504595 -5.05652)
(-0.305089 -0.513962 -4.96044)
(-0.474065 -0.299368 -5.06493)
(-0.49919 -0.101741 -5.17398)
(-0.413364 0.0495811 -5.27447)
(-0.265485 0.157702 -5.35174)
(-0.0782552 0.228018 -5.40884)
(0.136094 0.272475 -5.45318)
(0.363931 0.297717 -5.488)
(0.601656 0.308842 -5.51571)
(0.838636 0.311252 -5.53984)
(1.08534 0.305558 -5.55931)
(1.3116 0.296927 -5.58264)
(1.58577 0.281668 -5.60138)
(1.76356 0.271323 -5.64397)
(2.18078 0.251981 -5.73557)
(7.19731 -0.00832458 -5.28421)
(7.21176 -0.021097 -5.29382)
(7.20846 -0.0371123 -5.29907)
(7.18626 -0.0511109 -5.29618)
(7.14327 -0.0783736 -5.28552)
(7.06408 -0.107069 -5.26723)
(6.95783 -0.148779 -5.24321)
(6.79965 -0.192945 -5.20996)
(6.59488 -0.259104 -5.17117)
(6.32057 -0.331314 -5.12157)
(5.95226 -0.442435 -5.0652)
(5.52051 -0.563446 -5.02029)
(4.86921 -0.755426 -4.96641)
(4.35736 -0.92476 -5.22823)
(3.88546 -1.25508 -5.67291)
(2.54665 -1.22668 -5.76626)
(0.064815 -0.327361 -5.06932)
(-0.469565 -0.349281 -4.94808)
(-0.757001 -0.206017 -5.06894)
(-0.856906 -0.0813335 -5.19145)
(-0.817484 0.012693 -5.29557)
(-0.689702 0.0907668 -5.3855)
(-0.507029 0.134248 -5.44523)
(-0.289364 0.164093 -5.4932)
(-0.0508739 0.180426 -5.52982)
(0.199932 0.18764 -5.55872)
(0.453104 0.189244 -5.58376)
(0.715807 0.185536 -5.60482)
(0.961798 0.179654 -5.63116)
(1.25083 0.170254 -5.65612)
(1.4481 0.163303 -5.70851)
(1.88934 0.151975 -5.80565)
(7.19799 -0.0018122 -5.28322)
(7.2086 -0.00908758 -5.2939)
(7.20342 -0.0136269 -5.29742)
(7.18212 -0.0169487 -5.29623)
(7.14032 -0.0263702 -5.28451)
(7.05413 -0.0355354 -5.26704)
(6.94703 -0.0507577 -5.24044)
(6.77499 -0.0646729 -5.20865)
(6.56819 -0.0888764 -5.1659)
(6.26673 -0.111321 -5.11867)
(5.90006 -0.151487 -5.05928)
(5.41873 -0.188349 -5.01736)
(4.79837 -0.250004 -4.98539)
(4.26804 -0.296986 -5.25001)
(3.80845 -0.375961 -5.70646)
(2.48988 -0.358036 -5.79449)
(0.048278 -0.113176 -5.07132)
(-0.53614 -0.120828 -4.94428)
(-0.874424 -0.0724228 -5.07397)
(-1.00509 -0.0312744 -5.20257)
(-0.991772 0.000642866 -5.30793)
(-0.883117 0.0296523 -5.40517)
(-0.700123 0.0440118 -5.467)
(-0.486107 0.0545854 -5.51611)
(-0.242335 0.060255 -5.55411)
(0.0125444 0.0627339 -5.58326)
(0.272782 0.0633333 -5.60882)
(0.542085 0.0620464 -5.63047)
(0.796811 0.0599557 -5.65795)
(1.09217 0.0567669 -5.68665)
(1.29885 0.0543695 -5.74442)
(1.74925 0.0506975 -5.84337)
(7.198 0.00181548 -5.28322)
(7.20861 0.00908436 -5.2939)
(7.20342 0.0136287 -5.29742)
(7.18212 0.0169511 -5.29623)
(7.14033 0.026371 -5.28452)
(7.05414 0.0355339 -5.26704)
(6.94705 0.0507527 -5.24044)
(6.775 0.0646649 -5.20864)
(6.56821 0.0888673 -5.16591)
(6.26672 0.111305 -5.11867)
(5.9001 0.151474 -5.05928)
(5.41872 0.188329 -5.01736)
(4.7984 0.249987 -4.9854)
(4.26806 0.296965 -5.25)
(3.80847 0.375943 -5.70646)
(2.48989 0.35803 -5.79448)
(0.0482746 0.113112 -5.07132)
(-0.536151 0.12076 -4.94428)
(-0.87444 0.0723814 -5.07397)
(-1.00511 0.0312543 -5.20257)
(-0.991796 -0.000646393 -5.30793)
(-0.883145 -0.0296389 -5.40517)
(-0.700152 -0.0439901 -5.467)
(-0.486137 -0.0545572 -5.51611)
(-0.242367 -0.0602233 -5.5541)
(0.0125122 -0.0627007 -5.58326)
(0.27275 -0.0632998 -5.60882)
(0.542055 -0.0620138 -5.63047)
(0.796783 -0.0599252 -5.65795)
(1.09214 -0.0567387 -5.68665)
(1.29882 -0.0543454 -5.74442)
(1.74922 -0.0506787 -5.84337)
(7.19731 0.00830942 -5.28421)
(7.21175 0.0210992 -5.29382)
(7.20846 0.0371124 -5.29906)
(7.18627 0.0511069 -5.29618)
(7.14328 0.0783706 -5.28552)
(7.06409 0.107064 -5.26723)
(6.95784 0.148773 -5.24321)
(6.79967 0.192939 -5.20997)
(6.59488 0.259091 -5.17117)
(6.3206 0.331307 -5.12158)
(5.95225 0.442412 -5.0652)
(5.52055 0.563435 -5.0203)
(4.86922 0.7554 -4.9664)
(4.35739 0.924744 -5.22824)
(3.88549 1.25508 -5.67291)
(2.54667 1.22669 -5.76626)
(0.0648068 0.327306 -5.06931)
(-0.469597 0.349221 -4.94807)
(-0.757052 0.205981 -5.06894)
(-0.856972 0.0813183 -5.19145)
(-0.817564 -0.012689 -5.29556)
(-0.689791 -0.0907515 -5.3855)
(-0.50712 -0.134224 -5.44523)
(-0.289462 -0.164064 -5.4932)
(-0.0509687 -0.180394 -5.52981)
(0.199837 -0.187607 -5.55871)
(0.45301 -0.189212 -5.58376)
(0.715715 -0.185505 -5.60481)
(0.96171 -0.179625 -5.63116)
(1.25074 -0.170227 -5.65612)
(1.44802 -0.16328 -5.70852)
(1.88926 -0.151958 -5.80565)
(7.19509 0.0183267 -5.2836)
(7.21232 0.0310989 -5.29533)
(7.21119 0.0572336 -5.29942)
(7.19043 0.0826217 -5.29799)
(7.15085 0.128226 -5.28627)
(7.08114 0.170482 -5.27122)
(6.98365 0.240706 -5.24579)
(6.84187 0.305626 -5.21764)
(6.65808 0.417628 -5.17698)
(6.41019 0.522273 -5.13442)
(6.08812 0.713583 -5.07686)
(5.6946 0.890774 -5.03109)
(5.14499 1.22462 -4.98602)
(4.65541 1.47694 -5.16302)
(4.22852 1.95185 -5.65659)
(2.89046 1.91102 -5.77141)
(0.113575 0.504558 -5.05652)
(-0.305155 0.513927 -4.96043)
(-0.474169 0.299349 -5.06492)
(-0.499318 0.101738 -5.17397)
(-0.413514 -0.0495666 -5.27446)
(-0.265644 -0.157681 -5.35174)
(-0.0784227 -0.227991 -5.40883)
(0.135925 -0.272445 -5.45317)
(0.363761 -0.297685 -5.488)
(0.601488 -0.308811 -5.5157)
(0.83847 -0.311222 -5.53983)
(1.08518 -0.30553 -5.5593)
(1.31145 -0.296902 -5.58263)
(1.58562 -0.281645 -5.60138)
(1.76342 -0.271304 -5.64397)
(2.18064 -0.251967 -5.73557)
(7.19801 0.0237188 -5.28497)
(7.21073 0.0423325 -5.29431)
(7.21588 0.0747273 -5.30208)
(7.19308 0.111635 -5.29683)
(7.16626 0.169335 -5.29135)
(7.09995 0.227386 -5.27107)
(7.02371 0.317363 -5.25615)
(6.89765 0.403487 -5.21927)
(6.74388 0.546487 -5.19677)
(6.54562 0.684882 -5.13941)
(6.25128 0.922472 -5.10612)
(5.99186 1.16315 -5.05148)
(5.43239 1.5985 -4.969)
(5.09701 1.97279 -5.13699)
(4.64374 2.88048 -5.56084)
(3.0167 3.2842 -5.70966)
(0.303065 0.482023 -5.00781)
(0.0768699 0.507571 -4.95817)
(0.0862556 0.277504 -5.05878)
(0.171736 0.0584437 -5.15723)
(0.307625 -0.111145 -5.24691)
(0.469244 -0.234286 -5.31505)
(0.653674 -0.317616 -5.36747)
(0.851205 -0.371041 -5.40755)
(1.05591 -0.402304 -5.4397)
(1.26654 -0.416444 -5.46527)
(1.47333 -0.420095 -5.48715)
(1.69105 -0.413255 -5.50299)
(1.88374 -0.403728 -5.52169)
(2.12922 -0.383854 -5.53622)
(2.27977 -0.372275 -5.5663)
(2.64712 -0.346234 -5.64601)
(7.19413 0.0323288 -5.28526)
(7.2123 0.0493308 -5.29593)
(7.21466 0.0902375 -5.30247)
(7.20269 0.129852 -5.29989)
(7.17607 0.204953 -5.29306)
(7.13213 0.267773 -5.27792)
(7.05982 0.378496 -5.26022)
(6.97666 0.477101 -5.23555)
(6.83302 0.639224 -5.20015)
(6.71009 0.806282 -5.17994)
(6.46045 1.06109 -5.09371)
(6.27593 1.35287 -5.13158)
(5.99551 1.78879 -4.95917)
(5.51373 2.33948 -5.05661)
(5.78416 3.22299 -5.40678)
(4.83988 4.16297 -5.65683)
(4.96018 3.85141 -5.84751)
(3.59575 2.63259 -5.47473)
(1.67334 0.854117 -5.26715)
(0.958495 0.184343 -5.32517)
(0.790125 0.029558 -5.3543)
(0.795101 0.000548921 -5.34293)
(0.823752 0.00665034 -5.30675)
(0.821848 0.00115571 -5.2201)
(0.874788 0.226582 -5.02823)
(0.973893 0.283205 -4.98747)
(1.14276 0.174817 -5.04921)
(1.29962 -0.00123102 -5.13756)
(1.45095 -0.15811 -5.21767)
(1.60264 -0.280557 -5.28145)
(1.75862 -0.370123 -5.33037)
(1.91776 -0.430497 -5.36713)
(2.07853 -0.468772 -5.39575)
(2.24326 -0.488122 -5.41747)
(2.40221 -0.496347 -5.43637)
(2.57476 -0.490961 -5.44972)
(2.71988 -0.484251 -5.4653)
(2.91763 -0.463079 -5.47873)
(3.03333 -0.452855 -5.49614)
(3.32322 -0.424409 -5.55751)
(7.18113 0.0214611 -5.28202)
(7.21864 0.0541759 -5.2983)
(7.20461 0.0933011 -5.30132)
(7.22203 0.154904 -5.30499)
(7.17581 0.218821 -5.29244)
(7.17765 0.313048 -5.28856)
(7.08485 0.406174 -5.25889)
(7.06889 0.542537 -5.25867)
(6.91983 0.687637 -5.19813)
(6.87608 0.87975 -5.22134)
(6.69709 1.12971 -5.11207)
(6.55324 1.41731 -5.15279)
(6.48309 1.85801 -5.05901)
(6.18473 2.31564 -5.00916)
(6.31165 3.00913 -5.15052)
(6.5366 4.11873 -5.5355)
(6.59885 4.02152 -5.72561)
(6.2883 3.5249 -5.73776)
(5.3629 2.48052 -5.64168)
(4.40409 1.47675 -5.57183)
(3.71305 0.807767 -5.53162)
(3.28908 0.424991 -5.4936)
(3.04875 0.233436 -5.44017)
(2.93394 0.0977232 -5.35941)
(2.75794 0.0862868 -5.18708)
(2.76396 0.0865178 -5.12831)
(2.82141 0.0557948 -5.13105)
(2.92246 -0.030611 -5.17434)
(3.02922 -0.14302 -5.23037)
(3.13094 -0.24955 -5.27991)
(3.23213 -0.340596 -5.31951)
(3.33202 -0.410103 -5.34974)
(3.4316 -0.460951 -5.37369)
(3.53414 -0.491789 -5.39153)
(3.63181 -0.511852 -5.40687)
(3.74262 -0.514107 -5.41808)
(3.83137 -0.515909 -5.42912)
(3.96194 -0.499571 -5.44117)
(4.03714 -0.493593 -5.44957)
(4.22858 -0.469801 -5.49032)
(7.17881 0.023301 -5.28286)
(7.21956 0.0581955 -5.29875)
(7.20529 0.102252 -5.3019)
(7.23038 0.164411 -5.30724)
(7.19147 0.239314 -5.29479)
(7.20389 0.325561 -5.29507)
(7.13767 0.439582 -5.26686)
(7.12767 0.551913 -5.2679)
(7.04334 0.732074 -5.22309)
(6.99416 0.880033 -5.22194)
(6.92274 1.16759 -5.17515)
(6.83058 1.38074 -5.14264)
(6.79424 1.80451 -5.14052)
(6.78268 2.19809 -5.06269)
(6.76857 2.64275 -5.0778)
(7.09096 3.50328 -5.22836)
(7.63318 3.90861 -5.4835)
(7.82001 3.70767 -5.65372)
(7.68996 3.32583 -5.7096)
(7.29823 2.70451 -5.72528)
(6.81015 2.08217 -5.70906)
(6.33556 1.53804 -5.67606)
(5.91712 1.10611 -5.61914)
(5.59985 0.776302 -5.5634)
(5.33603 0.545885 -5.46914)
(5.14886 0.383303 -5.38404)
(5.04168 0.245664 -5.3339)
(4.99112 0.116757 -5.31785)
(4.97708 -0.0069685 -5.32327)
(4.97864 -0.119218 -5.33809)
(4.99388 -0.219086 -5.35536)
(5.01248 -0.29962 -5.37086)
(5.03835 -0.366532 -5.38546)
(5.06621 -0.412231 -5.39637)
(5.09652 -0.448528 -5.40524)
(5.13249 -0.465445 -5.41219)
(5.16355 -0.48117 -5.4184)
(5.21409 -0.477226 -5.42611)