/*--------------------------------*- C++ -*----------------------------------*\
| =========                 |                                                 |
| \\      /  F ield         | OpenFOAM: The Open Source CFD Toolbox           |
|  \\    /   O peration     | Version:  2412                                  |
|   \\  /    A nd           | Website:  www.openfoam.com                      |
|    \\/     M anipulation  |                                                 |
\*---------------------------------------------------------------------------*/
FoamFile
{
    version     2.0;
    format      ascii;
    arch        "LSB;label=32;scalar=64";
    class       volVectorField;
    location    "5";
    object      U4;
}
// * * * * * * * * * * * * * * * * * * * * * * * * * * * * * * * * * * * * * //

dimensions      [0 1 -1 0 0 0 0];

internalField   nonuniform List<vector> 
47360
(
(7.70583 -0.00133953 -6.34695)
(7.72049 -0.00225 -6.35981)
(7.73524 -0.00432817 -6.37062)
(7.75359 -0.00711642 -6.37803)
(7.77764 -0.0102988 -6.38301)
(7.8062 -0.0138533 -6.38614)
(7.83973 -0.0177428 -6.38782)
(7.87823 -0.0219084 -6.38839)
(7.92251 -0.026316 -6.38816)
(7.97223 -0.0308972 -6.38725)
(8.02805 -0.0355702 -6.38591)
(8.08942 -0.0402579 -6.38412)
(8.15683 -0.0448257 -6.38209)
(8.22935 -0.0491989 -6.37973)
(8.30719 -0.0531839 -6.37729)
(8.3889 -0.0567323 -6.37459)
(8.47438 -0.0595952 -6.37196)
(8.56168 -0.0618102 -6.36913)
(8.6505 -0.0631003 -6.36653)
(8.73852 -0.0636597 -6.36379)
(8.8256 -0.0631912 -6.36147)
(8.90922 -0.0620942 -6.35905)
(8.98973 -0.059982 -6.35722)
(9.0645 -0.0575222 -6.35526)
(9.13464 -0.0540676 -6.35406)
(9.19738 -0.0507429 -6.35265)
(9.25473 -0.0462934 -6.3521)
(9.30362 -0.042682 -6.35122)
(9.3472 -0.0375851 -6.35125)
(9.38168 -0.0341537 -6.3508)
(9.41172 -0.028918 -6.35138)
(9.43217 -0.0255939 -6.35102)
(9.44966 -0.0206229 -6.35238)
(9.45816 -0.0185467 -6.35184)
(9.46377 -0.0131019 -6.35361)
(9.46228 -0.0114708 -6.35346)
(9.45895 -0.00828916 -6.35484)
(9.44868 -0.00649793 -6.35451)
(9.44023 -0.00414873 -6.35563)
(9.41495 -0.00188943 -6.35529)
(7.70516 -0.00238139 -6.3467)
(7.72053 -0.0061532 -6.35966)
(7.73525 -0.0125757 -6.37053)
(7.75328 -0.0207625 -6.37789)
(7.77733 -0.0305071 -6.38281)
(7.80558 -0.0413952 -6.3858)
(7.8392 -0.0533007 -6.38731)
(7.87735 -0.065922 -6.38771)
(7.92173 -0.0792808 -6.3873)
(7.9711 -0.093048 -6.38626)
(8.02725 -0.107198 -6.38474)
(8.08851 -0.121291 -6.38282)
(8.15668 -0.135214 -6.3806)
(8.22951 -0.148396 -6.37815)
(8.30866 -0.160646 -6.37551)
(8.39115 -0.171319 -6.37274)
(8.47849 -0.18022 -6.36989)
(8.56692 -0.186782 -6.36702)
(8.65797 -0.190946 -6.36417)
(8.74719 -0.192376 -6.36143)
(8.83657 -0.191265 -6.35881)
(8.92108 -0.187533 -6.35643)
(9.00374 -0.181563 -6.35426)
(9.07883 -0.173495 -6.35243)
(9.15087 -0.163728 -6.35085)
(9.21318 -0.152661 -6.34962)
(9.27223 -0.140412 -6.3487)
(9.3199 -0.127844 -6.34802)
(9.36504 -0.114389 -6.34778)
(9.3976 -0.101701 -6.3475)
(9.42907 -0.0881791 -6.34792)
(9.44726 -0.0763366 -6.3478)
(9.46631 -0.063836 -6.34882)
(9.47152 -0.0535458 -6.34871)
(9.47953 -0.042492 -6.3503)
(9.47463 -0.0344303 -6.35005)
(9.47228 -0.0247445 -6.35175)
(9.45934 -0.0186531 -6.35158)
(9.45101 -0.0120418 -6.35279)
(9.42421 -0.0053467 -6.35256)
(7.70524 -0.00386383 -6.34666)
(7.72047 -0.0104753 -6.35954)
(7.73519 -0.0210417 -6.3704)
(7.75289 -0.0347254 -6.37757)
(7.7768 -0.0509495 -6.3823)
(7.80446 -0.0691197 -6.38503)
(7.83786 -0.0889643 -6.38631)
(7.87538 -0.110149 -6.3864)
(7.91968 -0.132574 -6.38571)
(7.9686 -0.155846 -6.38433)
(8.0251 -0.17977 -6.38251)
(8.08647 -0.203762 -6.38026)
(8.15578 -0.227479 -6.37774)
(8.22961 -0.250091 -6.37496)
(8.31098 -0.271102 -6.37203)
(8.39553 -0.289548 -6.36896)
(8.48617 -0.304879 -6.36583)
(8.57751 -0.316308 -6.36267)
(8.67251 -0.323471 -6.35954)
(8.7649 -0.32605 -6.35649)
(8.85823 -0.32409 -6.3536)
(8.94548 -0.31778 -6.35091)
(9.03153 -0.307467 -6.34848)
(9.10844 -0.293716 -6.34636)
(9.18302 -0.276964 -6.34457)
(9.24602 -0.258033 -6.34312)
(9.30675 -0.237232 -6.34205)
(9.35395 -0.215585 -6.34124)
(9.40006 -0.193085 -6.34093)
(9.43109 -0.170944 -6.34062)
(9.4631 -0.148731 -6.34105)
(9.47882 -0.127858 -6.34103)
(9.49812 -0.107429 -6.34211)
(9.50033 -0.0892106 -6.34218)
(9.50855 -0.0714434 -6.34379)
(9.49996 -0.0566992 -6.34382)
(9.49843 -0.0418658 -6.34559)
(9.4817 -0.0305342 -6.34562)
(9.47321 -0.0199188 -6.34701)
(9.44329 -0.00845213 -6.34702)
(7.70539 -0.00525002 -6.34662)
(7.72044 -0.0146414 -6.35941)
(7.73513 -0.0293584 -6.37019)
(7.75235 -0.0485032 -6.37708)
(7.77593 -0.0712032 -6.38155)
(7.80278 -0.0967249 -6.38385)
(7.83567 -0.124649 -6.38478)
(7.87225 -0.154616 -6.38435)
(7.91616 -0.186425 -6.38325)
(7.96443 -0.219624 -6.38132)
(8.02115 -0.253916 -6.37905)
(8.08271 -0.288499 -6.37624)
(8.15344 -0.322898 -6.37326)
(8.22891 -0.355845 -6.36997)
(8.31338 -0.386679 -6.36659)
(8.40135 -0.41381 -6.36306)
(8.49682 -0.436541 -6.35949)
(8.59303 -0.453444 -6.3559)
(8.69396 -0.46418 -6.35232)
(8.79165 -0.467985 -6.34884)
(8.89087 -0.465273 -6.3455)
(8.98277 -0.455965 -6.3424)
(9.07373 -0.441028 -6.33956)
(9.15394 -0.420839 -6.33704)
(9.23202 -0.396626 -6.33493)
(9.29665 -0.368934 -6.33316)
(9.35939 -0.339 -6.33191)
(9.40656 -0.30739 -6.33089)
(9.45345 -0.275204 -6.33054)
(9.48296 -0.24291 -6.33017)
(9.51491 -0.211407 -6.33069)
(9.52785 -0.180976 -6.3308)
(9.54667 -0.152335 -6.33205)
(9.54511 -0.125559 -6.33241)
(9.55286 -0.10109 -6.33418)
(9.53971 -0.0789916 -6.33464)
(9.53814 -0.0592758 -6.33657)
(9.51673 -0.0420982 -6.33701)
(9.50756 -0.0276638 -6.33864)
(9.47321 -0.011083 -6.33909)
(7.70547 -0.00878651 -6.34633)
(7.72038 -0.0209437 -6.359)
(7.73493 -0.0396526 -6.36966)
(7.75154 -0.0639378 -6.37621)
(7.77452 -0.0926976 -6.38035)
(7.80026 -0.1253 -6.38211)
(7.83223 -0.161048 -6.3826)
(7.86746 -0.199796 -6.38147)
(7.91055 -0.241104 -6.37985)
(7.95777 -0.284759 -6.37711)
(8.01445 -0.3301 -6.37426)
(8.07607 -0.376385 -6.3706)
(8.14842 -0.422659 -6.36702)
(8.22599 -0.467445 -6.36295)
(8.31454 -0.509588 -6.35898)
(8.40726 -0.546958 -6.35476)
(8.50939 -0.578427 -6.35062)
(8.61263 -0.601933 -6.3464)
(8.72188 -0.616908 -6.34225)
(8.82733 -0.622271 -6.33818)
(8.93474 -0.618676 -6.33427)
(9.03349 -0.605995 -6.33058)
(9.13121 -0.585699 -6.32723)
(9.21629 -0.558214 -6.32421)
(9.29908 -0.525459 -6.3217)
(9.36629 -0.487978 -6.31959)
(9.43167 -0.447788 -6.31814)
(9.4792 -0.405218 -6.31698)
(9.52689 -0.362232 -6.31663)
(9.55484 -0.318851 -6.31632)
(9.58622 -0.276942 -6.31702)
(9.59611 -0.236186 -6.31737)
(9.61352 -0.198323 -6.31895)
(9.6079 -0.162595 -6.31973)
(9.61395 -0.130619 -6.32192)
(9.59606 -0.101108 -6.32295)
(9.59303 -0.0758924 -6.32532)
(9.56649 -0.0527752 -6.32645)
(9.55602 -0.0346151 -6.32846)
(9.51616 -0.0127216 -6.32974)
(7.7054 -0.0124144 -6.3462)
(7.7204 -0.027314 -6.3588)
(7.7345 -0.0498337 -6.36914)
(7.75053 -0.078889 -6.37528)
(7.77234 -0.11344 -6.37883)
(7.79682 -0.153192 -6.37995)
(7.82706 -0.197093 -6.37973)
(7.86061 -0.245179 -6.37778)
(7.90196 -0.296579 -6.37538)
(7.94773 -0.351513 -6.3716)
(8.0036 -0.408826 -6.36793)
(8.06505 -0.468192 -6.36313)
(8.13885 -0.527938 -6.35876)
(8.2189 -0.586583 -6.35355)
(8.31239 -0.642209 -6.34884)
(8.4113 -0.692022 -6.34364)
(8.52225 -0.734289 -6.33881)
(8.63506 -0.765982 -6.33377)
(8.75565 -0.786232 -6.32894)
(8.87174 -0.793518 -6.32416)
(8.99029 -0.788893 -6.31956)
(9.09836 -0.77214 -6.3152)
(9.20523 -0.745528 -6.31129)
(9.29703 -0.709545 -6.3078)
(9.38613 -0.666805 -6.30492)
(9.45702 -0.617946 -6.30256)
(9.52595 -0.565868 -6.301)
(9.57442 -0.510854 -6.29993)
(9.62339 -0.455683 -6.29984)
(9.64993 -0.400058 -6.30003)
(9.68079 -0.346667 -6.30136)
(9.6873 -0.294567 -6.30251)
(9.70295 -0.246516 -6.30487)
(9.6926 -0.200918 -6.30657)
(9.69635 -0.160592 -6.30953)
(9.67297 -0.123001 -6.31153)
(9.6677 -0.0915493 -6.31461)
(9.6353 -0.0620559 -6.31676)
(9.6231 -0.0398706 -6.31937)
(9.57664 -0.0122072 -6.32192)
(7.70526 -0.0113234 -6.34615)
(7.72045 -0.0285969 -6.35874)
(7.73393 -0.0552024 -6.36873)
(7.74931 -0.0896571 -6.3746)
(7.76932 -0.130643 -6.37738)
(7.79226 -0.178006 -6.37786)
(7.81967 -0.230679 -6.37643)
(7.85115 -0.28885 -6.37356)
(7.88923 -0.35131 -6.36973)
(7.93316 -0.418831 -6.36487)
(7.9866 -0.489551 -6.35974)
(8.04772 -0.564133 -6.35366)
(8.12188 -0.639499 -6.348)
(8.20496 -0.715051 -6.3414)
(8.30367 -0.787015 -6.33567)
(8.41071 -0.852636 -6.32917)
(8.53263 -0.908452 -6.32354)
(8.65851 -0.950811 -6.3175)
(8.79405 -0.977533 -6.31199)
(8.92456 -0.987322 -6.3064)
(9.05792 -0.981353 -6.30121)
(9.1785 -0.959562 -6.29624)
(9.29755 -0.925059 -6.29202)
(9.39861 -0.878899 -6.28823)
(9.49672 -0.824552 -6.28571)
(9.5732 -0.76248 -6.28385)
(9.64768 -0.69647 -6.28323)
(9.69808 -0.626575 -6.28308)
(9.74965 -0.556783 -6.28429)
(9.77507 -0.486334 -6.28578)
(9.80612 -0.419295 -6.28869)
(9.80932 -0.354165 -6.29167)
(9.82366 -0.294713 -6.29601)
(9.80814 -0.238286 -6.2998)
(9.80964 -0.188963 -6.30476)
(9.78009 -0.142798 -6.30884)
(9.77223 -0.104723 -6.31365)
(9.733 -0.0686485 -6.31768)
(9.71841 -0.0421441 -6.32159)
(9.66342 -0.00860271 -6.32608)
(7.70579 -0.0152349 -6.34573)
(7.72024 -0.0345642 -6.358)
(7.73367 -0.0648633 -6.3679)
(7.74716 -0.104171 -6.37295)
(7.7657 -0.151099 -6.37519)
(7.78562 -0.204682 -6.37466)
(7.80999 -0.26512 -6.37219)
(7.83767 -0.332237 -6.36818)
(7.87153 -0.406033 -6.36262)
(7.91196 -0.486627 -6.35662)
(7.96131 -0.572548 -6.34916)
(8.02104 -0.664479 -6.34204)
(8.09385 -0.758426 -6.33394)
(8.18018 -0.854628 -6.32617)
(8.28371 -0.946949 -6.3186)
(8.40135 -1.03292 -6.31075)
(8.53628 -1.10638 -6.30417)
(8.68052 -1.16271 -6.2971)
(8.83506 -1.19763 -6.29121)
(8.9856 -1.21031 -6.28491)
(9.13819 -1.20244 -6.27961)
(9.27692 -1.17447 -6.275)
(9.41296 -1.13033 -6.27222)
(9.52795 -1.07085 -6.27011)
(9.63915 -1.00132 -6.27036)
(9.72611 -0.92376 -6.27227)
(9.8099 -0.841742 -6.27654)
(9.86615 -0.756434 -6.2818)
(9.92307 -0.670954 -6.28865)
(9.94823 -0.584286 -6.29533)
(9.97924 -0.500903 -6.30272)
(9.97521 -0.419309 -6.30888)
(9.98365 -0.344447 -6.3156)
(9.95576 -0.273674 -6.32081)
(9.94928 -0.212275 -6.327)
(9.90527 -0.15526 -6.3315)
(9.88992 -0.108869 -6.33709)
(9.83651 -0.0650752 -6.34128)
(9.81568 -0.033583 -6.34546)
(9.74455 0.00702293 -6.35038)
(7.70749 -0.0247031 -6.34715)
(7.71947 -0.0444671 -6.35715)
(7.73404 -0.0759819 -6.36757)
(7.74361 -0.118205 -6.37045)
(7.76183 -0.169832 -6.37342)
(7.77583 -0.229247 -6.36994)
(7.79807 -0.297863 -6.368)
(7.81819 -0.373929 -6.36054)
(7.84828 -0.459951 -6.35489)
(7.88077 -0.553804 -6.34562)
(7.92595 -0.657113 -6.33663)
(7.9799 -0.768113 -6.32742)
(8.05101 -0.884951 -6.31597)
(8.13791 -1.00602 -6.30757)
(8.24684 -1.12491 -6.29623)
(8.37631 -1.23729 -6.28821)
(8.52783 -1.33475 -6.27959)
(8.6969 -1.40977 -6.27321)
(8.87621 -1.45428 -6.26616)
(9.05638 -1.47214 -6.26184)
(9.23536 -1.45923 -6.25906)
(9.40458 -1.424 -6.26041)
(9.56615 -1.36872 -6.26649)
(9.70525 -1.29671 -6.2765)
(9.83122 -1.20999 -6.28832)
(9.92461 -1.11168 -6.29944)
(10.0077 -1.00753 -6.3122)
(10.0527 -0.894507 -6.32145)
(10.0919 -0.780356 -6.33029)
(10.0955 -0.66627 -6.33613)
(10.1052 -0.558369 -6.34206)
(10.0806 -0.45717 -6.34775)
(10.0738 -0.365994 -6.35468)
(10.0287 -0.281991 -6.36047)
(10.0112 -0.209419 -6.36732)
(9.95071 -0.142955 -6.37246)
(9.92563 -0.0889709 -6.37857)
(9.8544 -0.0382182 -6.38281)
(9.82498 -0.00177609 -6.38758)
(9.73287 0.0445779 -6.39157)
(7.70851 -0.0280328 -6.34841)
(7.71887 -0.0492825 -6.35649)
(7.73382 -0.0812668 -6.36743)
(7.73967 -0.12688 -6.36774)
(7.75628 -0.182893 -6.37192)
(7.76369 -0.249026 -6.36421)
(7.78205 -0.325493 -6.36427)
(7.79267 -0.411449 -6.35033)
(7.8169 -0.509519 -6.34773)
(7.83766 -0.618249 -6.33005)
(7.87687 -0.740091 -6.3241)
(7.9189 -0.873653 -6.30695)
(7.9883 -1.01776 -6.29549)
(8.06871 -1.16971 -6.28364)
(8.18581 -1.32381 -6.26768)
(8.32541 -1.47104 -6.26156)
(8.49993 -1.6017 -6.24974)
(8.70062 -1.70142 -6.24615)
(8.92002 -1.7595 -6.2411)
(9.14643 -1.78237 -6.24813)
(9.37668 -1.7755 -6.2674)
(9.57582 -1.72532 -6.28822)
(9.74936 -1.64566 -6.31378)
(9.87833 -1.53537 -6.3336)
(9.97994 -1.40442 -6.34751)
(10.0434 -1.26402 -6.35985)
(10.0903 -1.11677 -6.36742)
(10.1066 -0.972987 -6.37622)
(10.1199 -0.832065 -6.38373)
(10.1011 -0.699022 -6.3925)
(10.0885 -0.572995 -6.40096)
(10.0397 -0.455656 -6.40749)
(10.0091 -0.348629 -6.41382)
(9.93872 -0.252135 -6.41809)
(9.89942 -0.168327 -6.42326)
(9.81371 -0.0939115 -6.42593)
(9.77249 -0.0336071 -6.42998)
(9.67908 0.021497 -6.43158)
(9.63945 0.0599778 -6.43405)
(9.52694 0.108788 -6.43532)
(7.70732 -0.0267927 -6.34741)
(7.71925 -0.0498159 -6.35686)
(7.73137 -0.0835765 -6.36609)
(7.73662 -0.132414 -6.36699)
(7.74699 -0.192084 -6.36863)
(7.75095 -0.263902 -6.36013)
(7.75873 -0.347577 -6.35808)
(7.76314 -0.442946 -6.34041)
(7.7719 -0.552723 -6.33832)
(7.7844 -0.678107 -6.31151)
(7.80513 -0.817622 -6.31082)
(7.83701 -0.980803 -6.27855)
(7.89445 -1.15258 -6.27518)
(7.96306 -1.34684 -6.24872)
(8.0902 -1.54675 -6.23668)
(8.23449 -1.73747 -6.22884)
(8.43791 -1.92039 -6.21573)
(8.69396 -2.05074 -6.22092)
(8.99358 -2.14919 -6.2482)
(9.27476 -2.17213 -6.29726)
(9.50602 -2.11805 -6.33642)
(9.68375 -2.01565 -6.37576)
(9.81035 -1.8718 -6.40021)
(9.89007 -1.7109 -6.42296)
(9.93636 -1.53892 -6.44099)
(9.94402 -1.3609 -6.45302)
(9.93434 -1.18087 -6.46001)
(9.89558 -1.00424 -6.46415)
(9.85334 -0.832495 -6.46593)
(9.78559 -0.671064 -6.46685)
(9.72636 -0.520267 -6.46713)
(9.64043 -0.384621 -6.46735)
(9.57641 -0.262665 -6.46776)
(9.47946 -0.15736 -6.46777)
(9.41865 -0.0663007 -6.46872)
(9.31698 0.00997475 -6.46823)
(9.265 0.0718904 -6.46921)
(9.16208 0.124617 -6.46849)
(9.11835 0.161418 -6.46855)
(9.00015 0.205923 -6.4685)
(7.70447 -0.0226745 -6.34273)
(7.71997 -0.0487219 -6.35716)
(7.72754 -0.0876535 -6.36291)
(7.73308 -0.138259 -6.36757)
(7.73497 -0.201776 -6.36228)
(7.73572 -0.273954 -6.35854)
(7.72939 -0.366064 -6.34683)
(7.72693 -0.463346 -6.33425)
(7.7134 -0.59004 -6.32148)
(7.71806 -0.7246 -6.29643)
(7.70455 -0.887588 -6.28909)
(7.73361 -1.08381 -6.249)
(7.75016 -1.27884 -6.24902)
(7.81713 -1.54437 -6.20373)
(7.94258 -1.78343 -6.20833)
(8.07172 -2.04236 -6.18153)
(8.34255 -2.31522 -6.18751)
(8.71799 -2.52699 -6.25779)
(9.04816 -2.58809 -6.34095)
(9.29729 -2.52969 -6.40729)
(9.45929 -2.39765 -6.46594)
(9.5364 -2.21287 -6.51125)
(9.5445 -1.99816 -6.53948)
(9.49769 -1.76565 -6.55538)
(9.41752 -1.5279 -6.55697)
(9.31143 -1.29642 -6.54853)
(9.20205 -1.07436 -6.53418)
(9.08605 -0.866389 -6.51958)
(8.98187 -0.672238 -6.50607)
(8.87324 -0.497252 -6.49604)
(8.78299 -0.33876 -6.48818)
(8.68387 -0.202456 -6.48348)
(8.60816 -0.0821262 -6.48009)
(8.51626 0.0157779 -6.47863)
(8.45536 0.100542 -6.47754)
(8.36844 0.165087 -6.47746)
(8.32223 0.219763 -6.4771)
(8.23951 0.259881 -6.47808)
(8.20673 0.28928 -6.477)
(8.121 0.320231 -6.48065)
(7.6999 -0.0234915 -6.34207)
(7.72143 -0.0499696 -6.35761)
(7.72162 -0.0894554 -6.36059)
(7.73053 -0.139982 -6.36694)
(7.71997 -0.205714 -6.35636)
(7.71883 -0.276751 -6.35603)
(7.69491 -0.37751 -6.33444)
(7.68131 -0.469685 -6.32849)
(7.64695 -0.620541 -6.30005)
(7.6261 -0.745564 -6.28344)
(7.58694 -0.957235 -6.25819)
(7.58662 -1.15411 -6.22146)
(7.553 -1.40843 -6.20922)
(7.6251 -1.74606 -6.16401)
(7.69359 -2.0115 -6.16286)
(7.82422 -2.42519 -6.1339)
(8.2633 -2.8609 -6.25739)
(8.6495 -2.99611 -6.38521)
(8.89662 -2.94872 -6.50253)
(8.97571 -2.75529 -6.59141)
(8.90977 -2.47772 -6.63932)
(8.74281 -2.15541 -6.6578)
(8.5185 -1.82535 -6.64793)
(8.27915 -1.50725 -6.62698)
(8.04775 -1.21949 -6.58867)
(7.83802 -0.966975 -6.54215)
(7.66845 -0.743824 -6.49973)
(7.53162 -0.545957 -6.46906)
(7.42999 -0.368248 -6.44986)
(7.34527 -0.212471 -6.44064)
(7.28427 -0.0749111 -6.43775)
(7.22702 0.0404116 -6.43924)
(7.18826 0.139572 -6.44294)
(7.14525 0.217065 -6.44786)
(7.12003 0.282187 -6.45227)
(7.08645 0.32762 -6.45767)
(7.0714 0.365444 -6.46125)
(7.04633 0.388669 -6.46783)
(7.03821 0.404632 -6.46819)
(7.02647 0.417575 -6.48235)
(7.69277 -0.0203916 -6.34393)
(7.72434 -0.0483813 -6.35789)
(7.71255 -0.0842971 -6.36023)
(7.73167 -0.136438 -6.36467)
(7.6978 -0.19935 -6.35231)
(7.70661 -0.27433 -6.35112)
(7.64695 -0.371595 -6.32334)
(7.63819 -0.46909 -6.32082)
(7.55996 -0.624407 -6.27695)
(7.51935 -0.751025 -6.27034)
(7.44973 -1.00105 -6.2224)
(7.37222 -1.18218 -6.18857)
(7.33316 -1.55204 -6.17285)
(7.32398 -1.88297 -6.10934)
(7.30727 -2.26827 -6.09826)
(7.56633 -2.9696 -6.22395)
(8.03339 -3.3858 -6.41176)
(8.21763 -3.27822 -6.6182)
(8.12133 -3.02976 -6.68588)
(7.78674 -2.59287 -6.70697)
(7.31383 -2.08761 -6.68791)
(6.83504 -1.61633 -6.65241)
(6.41071 -1.21927 -6.59666)
(6.08609 -0.900826 -6.54564)
(5.82588 -0.663217 -6.46028)
(5.64547 -0.483869 -6.38194)
(5.54423 -0.330112 -6.3338)
(5.49766 -0.189009 -6.31705)
(5.48837 -0.0564826 -6.32129)
(5.49504 0.0627618 -6.33658)
(5.51667 0.169145 -6.35598)
(5.54122 0.256292 -6.37555)
(5.57333 0.33026 -6.39467)
(5.6061 0.38311 -6.41111)
(5.6406 0.426961 -6.42512)
(5.67964 0.450821 -6.43752)
(5.71202 0.473126 -6.44793)
(5.76273 0.475471 -6.46032)
(5.7937 0.482503 -6.46707)
(5.87317 0.475952 -6.49247)
(7.69369 -0.0198552 -6.34304)
(7.72357 -0.0466693 -6.3571)
(7.71156 -0.078943 -6.35931)
(7.7243 -0.129378 -6.36242)
(7.68581 -0.184192 -6.34927)
(7.68344 -0.263669 -6.34527)
(7.60485 -0.343952 -6.31435)
(7.58643 -0.461365 -6.31164)
(7.45789 -0.584941 -6.25219)
(7.41706 -0.752511 -6.26494)
(7.25738 -0.966015 -6.16585)
(7.14112 -1.2134 -6.18212)
(7.05582 -1.59029 -6.10843)
(6.83866 -1.98798 -6.02894)
(6.88289 -2.55284 -6.17223)
(7.11995 -3.53382 -6.37605)
(7.1674 -3.53302 -6.68572)
(6.92043 -3.22658 -6.70668)
(6.15302 -2.51367 -6.603)
(5.16837 -1.68131 -6.50793)
(4.38831 -1.05897 -6.4632)
(3.87504 -0.654141 -6.44141)
(3.57959 -0.413907 -6.40806)
(3.43975 -0.241804 -6.3508)
(3.28138 -0.180838 -6.20033)
(3.2839 -0.144012 -6.14022)
(3.34837 -0.091728 -6.13502)
(3.45347 0.00209111 -6.17036)
(3.56759 0.111731 -6.22037)
(3.68058 0.216707 -6.26936)
(3.79399 0.308659 -6.31204)
(3.90439 0.380902 -6.34766)
(4.01261 0.436596 -6.37788)
(4.12154 0.472455 -6.40226)
(4.22267 0.498719 -6.42394)
(4.33599 0.506514 -6.44096)
(4.42395 0.514375 -6.45701)
(4.55265 0.503352 -6.47375)
(4.62459 0.50214 -6.48509)
(4.80459 0.482791 -6.52801)
(7.70372 -0.0275474 -6.34581)
(7.71856 -0.0416255 -6.35475)
(7.71933 -0.0746109 -6.36028)
(7.70798 -0.107439 -6.35791)
(7.68727 -0.173173 -6.34899)
(7.64209 -0.224473 -6.33572)
(7.58854 -0.323614 -6.31319)
(7.50154 -0.401962 -6.29146)
(7.39421 -0.548973 -6.24826)
(7.26317 -0.683328 -6.23021)
(7.07556 -0.911436 -6.13718)
(6.8788 -1.15393 -6.16625)
(6.67797 -1.52929 -6.00173)
(6.22696 -2.00958 -6.06321)
(6.4616 -2.72459 -6.32696)
(5.71072 -3.64369 -6.5463)
(5.71675 -3.4936 -6.73561)
(4.68005 -2.70002 -6.43237)
(2.87744 -1.29834 -6.1384)
(1.87772 -0.569782 -6.19217)
(1.4334 -0.262007 -6.28173)
(1.30566 -0.126802 -6.31752)
(1.29604 -0.0886092 -6.30409)
(1.29181 -0.0512871 -6.23589)
(1.33208 -0.196885 -6.07277)
(1.43698 -0.22956 -6.01074)
(1.61518 -0.134407 -6.05302)
(1.79958 0.0177183 -6.12822)
(1.98165 0.158207 -6.20365)
(2.16087 0.271367 -6.2686)
(2.33927 0.357145 -6.322)
(2.51493 0.417004 -6.36499)
(2.68661 0.457596 -6.40066)
(2.85893 0.479981 -6.429)
(3.02001 0.493014 -6.45463)
(3.19502 0.491649 -6.4734)
(3.33623 0.490346 -6.49424)
(3.53117 0.473205 -6.51191)
(3.64106 0.467211 -6.53151)
(3.91365 0.442017 -6.59294)
(7.70708 -0.0196526 -6.34616)
(7.71676 -0.0338829 -6.35381)
(7.72145 -0.0618585 -6.36043)
(7.69924 -0.0891338 -6.3555)
(7.67952 -0.14407 -6.34752)
(7.61546 -0.18727 -6.32923)
(7.55666 -0.272971 -6.30903)
(7.43806 -0.336647 -6.2754)
(7.31407 -0.472078 -6.24345)
(7.13056 -0.575807 -6.19132)
(6.88931 -0.798126 -6.14221)
(6.64677 -0.983138 -6.09325)
(6.19504 -1.38002 -5.99408)
(5.85684 -1.68136 -6.11541)
(5.50702 -2.49496 -6.44938)
(4.02696 -2.94328 -6.55733)
(0.661832 -0.380853 -6.03892)
(0.50325 -0.398995 -5.98321)
(0.522559 -0.235362 -6.05227)
(0.658985 -0.0434307 -6.14417)
(0.838157 0.109539 -6.23334)
(1.03474 0.224742 -6.30539)
(1.24527 0.30626 -6.36317)
(1.46112 0.360938 -6.40929)
(1.67698 0.395667 -6.44789)
(1.89487 0.413596 -6.47919)
(2.10188 0.4221 -6.50757)
(2.3215 0.418962 -6.52808)
(2.50657 0.414472 -6.55237)
(2.74915 0.397733 -6.57034)
(2.89075 0.390056 -6.60147)
(3.23602 0.366094 -6.67898)
(7.70525 -0.0177126 -6.34363)
(7.71817 -0.027617 -6.35374)
(7.71782 -0.0497644 -6.3567)
(7.69697 -0.0680674 -6.35583)
(7.66705 -0.109869 -6.34224)
(7.60064 -0.140883 -6.32868)
(7.52224 -0.20734 -6.29898)
(7.39252 -0.255161 -6.27215)
(7.23962 -0.361262 -6.22489)
(7.01867 -0.438923 -6.18247)
(6.74617 -0.618578 -6.11535)
(6.40121 -0.751195 -6.06599)
(5.93434 -1.06408 -6.00547)
(5.48909 -1.25485 -6.11765)
(5.10397 -1.72179 -6.53479)
(3.82678 -1.75286 -6.62283)
(0.456936 -0.431214 -6.08504)
(0.145781 -0.44363 -5.98176)
(0.00422134 -0.283588 -6.04974)
(0.0120761 -0.112644 -6.14783)
(0.14278 0.0349426 -6.25256)
(0.320657 0.141829 -6.33675)
(0.528918 0.214677 -6.40194)
(0.756654 0.2629 -6.45422)
(0.991634 0.292745 -6.49689)
(1.23351 0.308172 -6.53114)
(1.46791 0.315108 -6.56217)
(1.71512 0.312831 -6.58583)
(1.93063 0.308454 -6.61465)
(2.20252 0.295531 -6.6356)
(2.36771 0.288484 -6.67833)
(2.76071 0.270148 -6.76619)
(7.70679 -0.00871516 -6.3442)
(7.71794 -0.0183325 -6.35245)
(7.71465 -0.0322188 -6.35629)
(7.69385 -0.0418626 -6.35432)
(7.66135 -0.0668801 -6.34127)
(7.58595 -0.0886312 -6.32515)
(7.50152 -0.127638 -6.29583)
(7.35589 -0.161514 -6.26508)
(7.18778 -0.223409 -6.21779)
(6.94053 -0.27923 -6.17017)
(6.63348 -0.382704 -6.10113)
(6.24896 -0.477015 -6.05452)
(5.70366 -0.655496 -5.9811)
(5.22388 -0.788904 -6.16539)
(4.7932 -1.09958 -6.54513)
(3.51723 -1.1112 -6.61203)
(0.407251 -0.282659 -6.09885)
(0.00407614 -0.304926 -5.96811)
(-0.243167 -0.199137 -6.0447)
(-0.318838 -0.0930319 -6.15477)
(-0.240493 0.00109551 -6.26662)
(-0.0880655 0.0779517 -6.3645)
(0.110027 0.124952 -6.43509)
(0.336619 0.157794 -6.49262)
(0.578485 0.177686 -6.53847)
(0.830795 0.188075 -6.5748)
(1.07928 0.192782 -6.60727)
(1.34123 0.191487 -6.63256)
(1.57443 0.188441 -6.66432)
(1.86206 0.180462 -6.69009)
(2.0423 0.175739 -6.74196)
(2.4611 0.164652 -6.83468)
(7.70729 -0.00215188 -6.3434)
(7.71507 -0.00801449 -6.35241)
(7.7106 -0.0115231 -6.3548)
(7.69123 -0.0138459 -6.35416)
(7.65688 -0.022621 -6.34001)
(7.57881 -0.0293903 -6.32502)
(7.49275 -0.0434177 -6.29315)
(7.33541 -0.054254 -6.2635)
(7.16496 -0.0765136 -6.21247)
(6.89512 -0.0940067 -6.16661)
(6.58835 -0.130906 -6.09456)
(6.16198 -0.159916 -6.04992)
(5.63822 -0.217562 -5.99374)
(5.1387 -0.255497 -6.18304)
(4.71227 -0.335109 -6.57429)
(3.45256 -0.331414 -6.63744)
(0.390665 -0.097554 -6.10128)
(-0.0497284 -0.105898 -5.96257)
(-0.345204 -0.0704276 -6.04401)
(-0.454063 -0.0352084 -6.16153)
(-0.404414 -0.00342099 -6.27529)
(-0.27332 0.0248292 -6.38059)
(-0.0791842 0.0407672 -6.45488)
(0.142042 0.0524133 -6.51446)
(0.386806 0.0593965 -6.56238)
(0.641942 0.0630387 -6.59951)
(0.896355 0.064729 -6.63278)
(1.16423 0.0643135 -6.65879)
(1.40522 0.0632199 -6.69174)
(1.69953 0.06052 -6.72048)
(1.88707 0.0588938 -6.77734)
(2.3163 0.0552324 -6.87166)
(7.7073 0.00215405 -6.34339)
(7.71507 0.00801177 -6.35241)
(7.71061 0.0115246 -6.3548)
(7.69124 0.0138479 -6.35416)
(7.65689 0.0226211 -6.34001)
(7.57882 0.0293892 -6.32502)
(7.49277 0.0434126 -6.29315)
(7.33542 0.0542473 -6.26349)
(7.16499 0.0765052 -6.21247)
(6.89511 0.0939925 -6.16661)
(6.58838 0.130895 -6.09456)
(6.16198 0.159898 -6.04993)
(5.63825 0.217547 -5.99374)
(5.13873 0.255478 -6.18303)
(4.71229 0.335091 -6.57429)
(3.45258 0.331408 -6.63743)
(0.390663 0.0974986 -6.10128)
(-0.0497365 0.105838 -5.96256)
(-0.345217 0.0703861 -6.04401)
(-0.454082 0.0351835 -6.16153)
(-0.404435 0.00341025 -6.27529)
(-0.273344 -0.0248253 -6.38058)
(-0.0792093 -0.0407552 -6.45488)
(0.142016 -0.0523952 -6.51446)
(0.386778 -0.0593748 -6.56238)
(0.641914 -0.063015 -6.59951)
(0.896327 -0.0647048 -6.63278)
(1.1642 -0.0642895 -6.65879)
(1.40519 -0.0631973 -6.69174)
(1.6995 -0.0604992 -6.72048)
(1.88705 -0.0588762 -6.77734)
(2.31628 -0.055219 -6.87166)
(7.70679 0.00870461 -6.34419)
(7.71794 0.0183348 -6.35244)
(7.71465 0.03222 -6.35628)
(7.69385 0.0418598 -6.35432)
(7.66135 0.0668782 -6.34127)
(7.58596 0.0886274 -6.32515)
(7.50153 0.127635 -6.29583)
(7.3559 0.16151 -6.26508)
(7.18778 0.223399 -6.21778)
(6.94055 0.279226 -6.17018)
(6.63347 0.382685 -6.10113)
(6.249 0.477006 -6.05453)
(5.70367 0.655472 -5.98109)
(5.2239 0.788886 -6.1654)
(4.79323 1.09957 -6.54512)
(3.51725 1.11121 -6.61203)
(0.407245 0.282611 -6.09885)
(0.00405288 0.304874 -5.9681)
(-0.243211 0.199101 -6.0447)
(-0.318892 0.0930119 -6.15477)
(-0.240561 -0.00109929 -6.26662)
(-0.0881416 -0.0779453 -6.36449)
(0.109948 -0.124937 -6.43509)
(0.336534 -0.157774 -6.49262)
(0.578401 -0.177663 -6.53847)
(0.830711 -0.188052 -6.57479)
(1.0792 -0.192758 -6.60726)
(1.34114 -0.191464 -6.63255)
(1.57435 -0.188419 -6.66432)
(1.86198 -0.180442 -6.69009)
(2.04223 -0.175723 -6.74196)
(2.46103 -0.16464 -6.83468)
(7.70525 0.0176907 -6.34364)
(7.71817 0.0275945 -6.35375)
(7.71782 0.0497432 -6.35671)
(7.69697 0.0680434 -6.35584)
(7.66706 0.109848 -6.34225)
(7.60064 0.140855 -6.32869)
(7.52225 0.20732 -6.29898)
(7.39251 0.255123 -6.27216)
(7.23963 0.361241 -6.2249)
(7.01865 0.438877 -6.18248)
(6.7462 0.618567 -6.11537)
(6.40119 0.751142 -6.06598)
(5.93439 1.06406 -6.00551)
(5.4891 1.25482 -6.11762)
(5.10398 1.72176 -6.53478)
(3.82681 1.75284 -6.62281)
(0.45692 0.431181 -6.08504)
(0.14573 0.4436 -5.98175)
(0.00413797 0.283567 -6.04973)
(0.0119677 0.112637 -6.14782)
(0.142652 -0.0349355 -6.25254)
(0.320519 -0.141816 -6.33674)
(0.528772 -0.214659 -6.40193)
(0.756506 -0.262878 -6.45421)
(0.991484 -0.292722 -6.49688)
(1.23336 -0.30815 -6.53112)
(1.46776 -0.315087 -6.56216)
(1.71497 -0.312811 -6.58582)
(1.93049 -0.308436 -6.61463)
(2.20239 -0.295515 -6.63559)
(2.36758 -0.28847 -6.67833)
(2.76058 -0.270139 -6.76618)
(7.70708 0.0196584 -6.34616)
(7.71676 0.0338866 -6.3538)
(7.72145 0.061862 -6.36043)
(7.69924 0.0891364 -6.35549)
(7.67951 0.144072 -6.34752)
(7.61545 0.187275 -6.32923)
(7.55666 0.272968 -6.30903)
(7.43807 0.336657 -6.27539)
(7.31405 0.472066 -6.24346)
(7.13056 0.575817 -6.19131)
(6.88931 0.798113 -6.14222)
(6.64675 0.983132 -6.09326)
(6.19505 1.38001 -5.99406)
(5.85686 1.68133 -6.11544)
(5.50706 2.49493 -6.44939)
(4.02701 2.9433 -6.55731)
(0.661784 0.380879 -6.03893)
(0.503155 0.399011 -5.9832)
(0.522412 0.235373 -6.05226)
(0.658801 0.0434457 -6.14415)
(0.837958 -0.10952 -6.23332)
(1.03453 -0.22472 -6.30536)
(1.24505 -0.306238 -6.36315)
(1.4609 -0.360916 -6.40927)
(1.67675 -0.395646 -6.44786)
(1.89465 -0.413577 -6.47916)
(2.10166 -0.422084 -6.50755)
(2.32129 -0.418949 -6.52805)
(2.50637 -0.414461 -6.55235)
(2.74896 -0.397726 -6.57032)
(2.89056 -0.390051 -6.60145)
(3.23585 -0.366093 -6.67896)
(7.70374 0.0274463 -6.34583)
(7.71858 0.0415189 -6.35477)
(7.71936 0.0745102 -6.3603)
(7.70799 0.107327 -6.35794)
(7.68729 0.173086 -6.34901)
(7.64211 0.224331 -6.33575)
(7.58854 0.323528 -6.31321)
(7.50158 0.401803 -6.29149)
(7.39418 0.548884 -6.24827)
(7.26323 0.683215 -6.23023)
(7.07551 0.911333 -6.13718)
(6.87883 1.15387 -6.16627)
(6.67797 1.52917 -6.00173)
(6.22696 2.0095 -6.06323)
(6.46166 2.72449 -6.32695)
(5.71081 3.6437 -6.54626)
(5.71689 3.49361 -6.73558)
(4.68028 2.70006 -6.43234)
(2.87752 1.29835 -6.13831)
(1.8777 0.569869 -6.19207)
(1.43331 0.262097 -6.28165)
(1.30552 0.126848 -6.31747)
(1.29587 0.0886238 -6.30404)
(1.29162 0.0513214 -6.23585)
(1.33188 0.196954 -6.07274)
(1.43676 0.229634 -6.01071)
(1.61494 0.134461 -6.05299)
(1.79932 -0.0176784 -6.12819)
(1.98137 -0.158175 -6.20361)
(2.16059 -0.27134 -6.26856)
(2.33899 -0.357122 -6.32196)
(2.51464 -0.416987 -6.36495)
(2.68633 -0.457584 -6.40063)
(2.85866 -0.479972 -6.42896)
(3.01975 -0.493008 -6.4546)
(3.19476 -0.491648 -6.47336)
(3.33598 -0.490347 -6.49421)
(3.53094 -0.47321 -6.51188)
(3.64084 -0.467218 -6.53147)
(3.91344 -0.442029 -6.59291)
(7.69371 0.0198973 -6.34304)
(7.72356 0.0466528 -6.3571)
(7.71162 0.0789343 -6.35929)
(7.72425 0.129374 -6.36244)
(7.68588 0.184212 -6.34924)
(7.68338 0.263681 -6.3453)
(7.60492 0.343977 -6.31432)
(7.58634 0.461349 -6.31166)
(7.45798 0.58495 -6.25216)
(7.4169 0.752537 -6.26493)
(7.25748 0.966019 -6.16585)
(7.14102 1.21334 -6.18212)
(7.05582 1.59029 -6.10845)
(6.83871 1.9879 -6.02897)
(6.88284 2.55265 -6.17227)
(7.12014 3.53363 -6.37602)
(7.16758 3.533 -6.68553)
(6.92063 3.22662 -6.70644)
(6.15325 2.51379 -6.6027)
(5.16827 1.68123 -6.50763)
(4.38794 1.05869 -6.46297)
(3.87459 0.653836 -6.44123)
(3.57916 0.413697 -6.40791)
(3.43934 0.241678 -6.35066)
(3.28095 0.180797 -6.2002)
(3.28351 0.144019 -6.14012)
(3.348 0.0917594 -6.13493)
(3.45312 -0.00206564 -6.17029)
(3.56726 -0.111712 -6.2203)
(3.68026 -0.216696 -6.2693)
(3.79369 -0.308654 -6.31198)
(3.9041 -0.380902 -6.3476)
(4.01233 -0.436602 -6.37783)
(4.12128 -0.472464 -6.40222)
(4.22242 -0.498732 -6.42389)
(4.33575 -0.50653 -6.44092)
(4.42372 -0.514394 -6.45697)
(4.55244 -0.503375 -6.47371)
(4.62438 -0.502166 -6.48505)
(4.8044 -0.48282 -6.52797)
(7.69269 0.0203424 -6.34396)
(7.72432 0.0483918 -6.3579)
(7.71251 0.0841861 -6.36024)
(7.73166 0.136517 -6.3647)
(7.6978 0.199183 -6.35227)
(7.70661 0.274481 -6.3512)
(7.64695 0.371415 -6.32325)
(7.63818 0.469222 -6.32093)
(7.55986 0.624368 -6.27681)
(7.51949 0.751065 -6.27047)
(7.44953 1.00094 -6.22228)
(7.37229 1.18236 -6.18868)
(7.33312 1.55163 -6.1728)
(7.32389 1.88314 -6.10935)
(7.30734 2.26816 -6.09845)
(7.56628 2.96935 -6.22407)
(8.03362 3.38547 -6.41174)
(8.2178 3.27794 -6.61803)
(8.12144 3.02972 -6.68558)
(7.78686 2.59316 -6.70658)
(7.31368 2.08795 -6.68749)
(6.83457 1.61656 -6.65203)
(6.41001 1.21931 -6.59635)
(6.08532 0.900723 -6.54541)
(5.82516 0.663063 -6.4601)
(5.64485 0.483729 -6.38179)
(5.54372 0.330004 -6.33368)
(5.49725 0.188929 -6.31694)
(5.48803 0.0564212 -6.32119)
(5.49475 -0.0628116 -6.3365)
(5.51642 -0.169189 -6.35591)
(5.541 -0.256332 -6.37548)
(5.57313 -0.330299 -6.39461)
(5.60591 -0.383148 -6.41105)
(5.64043 -0.426999 -6.42507)
(5.67949 -0.45086 -6.43748)
(5.71188 -0.473167 -6.44789)
(5.7626 -0.475514 -6.46028)
(5.79358 -0.482547 -6.46704)
(5.87306 -0.475999 -6.49244)