/*--------------------------------*- C++ -*----------------------------------*\
| =========                 |                                                 |
| \\      /  F ield         | OpenFOAM: The Open Source CFD Toolbox           |
|  \\    /   O peration     | Version:  2412                                  |
|   \\  /    A nd           | Website:  www.openfoam.com                      |
|    \\/     M anipulation  |                                                 |
\*---------------------------------------------------------------------------*/
FoamFile
{
    version     2.0;
    format      ascii;
    arch        "LSB;label=32;scalar=64";
    class       volVectorField;
    location    "5";
    object      U5;
}
// * * * * * * * * * * * * * * * * * * * * * * * * * * * * * * * * * * * * * //

dimensions      [0 1 -1 0 0 0 0];

internalField   nonuniform List<vector> 
47360
(
(8.32991 -0.00108066 -7.88298)
(8.34123 -0.00167807 -7.89484)
(8.35232 -0.00330067 -7.90486)
(8.36606 -0.00561479 -7.91186)
(8.38418 -0.00824448 -7.91681)
(8.40573 -0.0111079 -7.92015)
(8.43141 -0.0142784 -7.92211)
(8.46137 -0.0177443 -7.92298)
(8.49628 -0.0214615 -7.92306)
(8.53594 -0.0253414 -7.92249)
(8.58093 -0.0293141 -7.92152)
(8.63092 -0.0333134 -7.92014)
(8.68635 -0.0372412 -7.91854)
(8.74653 -0.0410304 -7.91666)
(8.81169 -0.0445201 -7.91469)
(8.88062 -0.0476592 -7.91251)
(8.95337 -0.0502452 -7.91037)
(9.02817 -0.052288 -7.90804)
(9.10496 -0.0535735 -7.90585)
(9.18161 -0.0542251 -7.90354)
(9.25815 -0.0540226 -7.90157)
(9.33225 -0.0532489 -7.89952)
(9.40435 -0.0516243 -7.89798)
(9.47186 -0.0496247 -7.89637)
(9.5361 -0.0468299 -7.89542)
(9.59398 -0.0439746 -7.89438)
(9.64801 -0.0403059 -7.89408)
(9.69435 -0.0370833 -7.89362)
(9.73698 -0.0328154 -7.89391)
(9.77094 -0.0296343 -7.89394)
(9.80205 -0.0252608 -7.89474)
(9.82356 -0.0219393 -7.89493)
(9.84381 -0.0180949 -7.8964)
(9.85424 -0.0152153 -7.89637)
(9.86418 -0.0117789 -7.89836)
(9.86611 -0.00928012 -7.89822)
(9.86538 -0.00603325 -7.90014)
(9.8601 -0.00463141 -7.89986)
(9.85448 -0.00231726 -7.90119)
(9.83604 -0.00021323 -7.90087)
(8.32953 -0.0019912 -7.88179)
(8.34143 -0.00496973 -7.89415)
(8.35244 -0.0103782 -7.90452)
(8.36588 -0.0171053 -7.91159)
(8.38391 -0.0248534 -7.91652)
(8.4053 -0.0334525 -7.91971)
(8.43106 -0.0430095 -7.92152)
(8.46072 -0.0533912 -7.92222)
(8.49564 -0.0645666 -7.92213)
(8.53503 -0.0762225 -7.92139)
(8.58024 -0.0882545 -7.92023)
(8.63018 -0.100321 -7.91868)
(8.68617 -0.112281 -7.91689)
(8.74663 -0.123715 -7.91487)
(8.81279 -0.134401 -7.91271)
(8.88242 -0.143854 -7.91044)
(8.95664 -0.151842 -7.9081)
(9.03244 -0.15793 -7.9057)
(9.11104 -0.161997 -7.90331)
(9.18879 -0.163791 -7.90096)
(9.26722 -0.163381 -7.89876)
(9.34222 -0.160751 -7.89672)
(9.41607 -0.156116 -7.8949)
(9.48406 -0.149636 -7.89337)
(9.54983 -0.141611 -7.89212)
(9.60762 -0.13232 -7.89123)
(9.66297 -0.121994 -7.89065)
(9.70858 -0.11113 -7.89038)
(9.75239 -0.0995798 -7.89048)
(9.78504 -0.0883623 -7.89063)
(9.81714 -0.0765441 -7.89141)
(9.83717 -0.0659209 -7.89169)
(9.8582 -0.0547187 -7.8931)
(9.8667 -0.0454552 -7.89325)
(9.87754 -0.0352232 -7.89527)
(9.87681 -0.0279825 -7.89513)
(9.87799 -0.0187231 -7.89723)
(9.86987 -0.0132122 -7.8971)
(9.86455 -0.00672921 -7.89851)
(9.84457 -0.000321069 -7.89834)
(8.3296 -0.0029882 -7.88183)
(8.34143 -0.00824586 -7.89406)
(8.35247 -0.0170091 -7.9044)
(8.36563 -0.0280478 -7.9113)
(8.38351 -0.0409474 -7.91605)
(8.40444 -0.0555273 -7.91891)
(8.43002 -0.0717071 -7.92043)
(8.45918 -0.0892678 -7.92074)
(8.49399 -0.108035 -7.92033)
(8.533 -0.127685 -7.9192)
(8.57844 -0.147974 -7.9177)
(8.62845 -0.168473 -7.91576)
(8.68532 -0.188818 -7.91364)
(8.7466 -0.208385 -7.91125)
(8.81453 -0.226682 -7.9088)
(8.88587 -0.242958 -7.9062)
(8.96276 -0.256678 -7.9036)
(9.04103 -0.26722 -7.9009)
(9.1229 -0.274186 -7.89825)
(9.20339 -0.277325 -7.89563)
(9.28514 -0.276568 -7.89317)
(9.36258 -0.272082 -7.89085)
(9.43935 -0.264071 -7.88881)
(9.50909 -0.25299 -7.88704)
(9.57709 -0.239208 -7.88564)
(9.63572 -0.223322 -7.88458)
(9.69255 -0.205716 -7.88393)
(9.73807 -0.187084 -7.88356)
(9.7827 -0.167648 -7.88368)
(9.81436 -0.148186 -7.88384)
(9.84691 -0.12869 -7.8847)
(9.86505 -0.109969 -7.88515)
(9.88639 -0.0917822 -7.88663)
(9.89229 -0.0751328 -7.88709)
(9.90356 -0.0590531 -7.88905)
(9.89946 -0.0453129 -7.88936)
(9.90166 -0.0316872 -7.89144)
(9.89002 -0.0209685 -7.89161)
(9.88482 -0.0107706 -7.8932)
(9.86196 0.000322521 -7.89331)
(8.32976 -0.00506448 -7.88159)
(8.34145 -0.0124272 -7.89376)
(8.35242 -0.0245461 -7.90402)
(8.3652 -0.0399275 -7.91065)
(8.38279 -0.0578508 -7.91515)
(8.40306 -0.0780652 -7.91761)
(8.42817 -0.100553 -7.91875)
(8.45656 -0.125198 -7.91851)
(8.49099 -0.151764 -7.91761)
(8.52945 -0.179803 -7.91584)
(8.57499 -0.208888 -7.91381)
(8.62513 -0.238399 -7.91123)
(8.68306 -0.26783 -7.90858)
(8.74566 -0.296258 -7.90563)
(8.81606 -0.323002 -7.90268)
(8.89021 -0.346857 -7.89961)
(8.97104 -0.367086 -7.89657)
(9.05339 -0.382591 -7.89345)
(9.14017 -0.392915 -7.8904)
(9.22521 -0.397474 -7.88738)
(9.31193 -0.39643 -7.88451)
(9.39347 -0.389752 -7.8818)
(9.47453 -0.378103 -7.87942)
(9.54729 -0.361795 -7.87734)
(9.61845 -0.341828 -7.87569)
(9.67877 -0.318573 -7.87442)
(9.73752 -0.293188 -7.8737)
(9.78335 -0.26599 -7.87323)
(9.82881 -0.238125 -7.87342)
(9.85951 -0.209794 -7.87361)
(9.89209 -0.182031 -7.87466)
(9.90819 -0.154867 -7.87531)
(9.92908 -0.129205 -7.87707)
(9.93209 -0.104892 -7.87787)
(9.94284 -0.0826342 -7.88009)
(9.93508 -0.0621439 -7.88088)
(9.9371 -0.0440347 -7.88316)
(9.92142 -0.0277102 -7.88381)
(9.9158 -0.0140622 -7.88566)
(9.88898 0.00204001 -7.88626)
(8.32959 -0.00616387 -7.8816)
(8.3412 -0.0157344 -7.89362)
(8.35206 -0.0312305 -7.90372)
(8.36434 -0.0509123 -7.90998)
(8.38142 -0.073934 -7.91408)
(8.40079 -0.10018 -7.91589)
(8.42512 -0.129406 -7.91647)
(8.45239 -0.161566 -7.91541)
(8.48609 -0.196203 -7.91385)
(8.52363 -0.233053 -7.91117)
(8.56905 -0.271454 -7.90843)
(8.61916 -0.310833 -7.9049)
(8.67833 -0.350332 -7.90155)
(8.74259 -0.388819 -7.89772)
(8.81624 -0.425232 -7.89413)
(8.89428 -0.457896 -7.89034)
(8.98055 -0.485723 -7.88673)
(9.06875 -0.50709 -7.883)
(9.16244 -0.521313 -7.87944)
(9.25407 -0.527554 -7.87585)
(9.34776 -0.526122 -7.87248)
(9.43526 -0.516925 -7.86924)
(9.52221 -0.501029 -7.86642)
(9.59942 -0.478751 -7.86395)
(9.67484 -0.451678 -7.86205)
(9.73773 -0.420148 -7.86058)
(9.79904 -0.386005 -7.8598)
(9.84555 -0.349337 -7.85937)
(9.89202 -0.312072 -7.85973)
(9.92172 -0.273986 -7.86016)
(9.95407 -0.237044 -7.86152)
(9.9678 -0.200637 -7.86257)
(9.9877 -0.166744 -7.86477)
(9.98733 -0.134279 -7.86613)
(9.99675 -0.105218 -7.86887)
(9.98495 -0.0779044 -7.87034)
(9.98565 -0.0546428 -7.87313)
(9.96557 -0.0327792 -7.87455)
(9.95887 -0.0157489 -7.87682)
(9.92709 0.00553029 -7.87831)
(8.3296 -0.00977258 -7.88241)
(8.34121 -0.0210925 -7.89407)
(8.35173 -0.0382141 -7.90354)
(8.36354 -0.0614829 -7.90919)
(8.37968 -0.0898414 -7.91255)
(8.39798 -0.122477 -7.9136)
(8.42088 -0.158543 -7.91333)
(8.44671 -0.198235 -7.91133)
(8.47892 -0.241104 -7.90885)
(8.51519 -0.28729 -7.90501)
(8.55983 -0.335788 -7.90127)
(8.6097 -0.386212 -7.89647)
(8.66992 -0.437116 -7.89217)
(8.73612 -0.487315 -7.88711)
(8.81369 -0.535139 -7.88269)
(8.89678 -0.578384 -7.87788)
(8.9902 -0.615456 -7.87357)
(9.08635 -0.643964 -7.8691)
(9.18942 -0.662927 -7.86489)
(9.29005 -0.671153 -7.86064)
(9.39314 -0.669212 -7.85662)
(9.48875 -0.656921 -7.85285)
(9.58366 -0.635978 -7.84964)
(9.66695 -0.606712 -7.84687)
(9.74808 -0.571302 -7.8448)
(9.81456 -0.530148 -7.8433)
(9.87926 -0.485831 -7.84261)
(9.92702 -0.438394 -7.84247)
(9.9749 -0.390486 -7.84328)
(10.0037 -0.341593 -7.84444)
(10.0359 -0.294457 -7.84666)
(10.0469 -0.247887 -7.84871)
(10.0654 -0.20486 -7.85188)
(10.061 -0.16344 -7.85432)
(10.0685 -0.126845 -7.85798)
(10.0518 -0.0921015 -7.86057)
(10.0506 -0.0631953 -7.86418)
(10.0252 -0.035372 -7.86676)
(10.0169 -0.0147079 -7.86969)
(9.97912 0.0120201 -7.87255)
(8.3296 -0.00905345 -7.88239)
(8.34134 -0.0223655 -7.89405)
(8.35139 -0.0427209 -7.90318)
(8.36261 -0.0702325 -7.90843)
(8.37729 -0.103991 -7.91083)
(8.39427 -0.14325 -7.91101)
(8.41488 -0.186921 -7.90937)
(8.43891 -0.235002 -7.90631)
(8.46844 -0.286869 -7.9023)
(8.50303 -0.343094 -7.89724)
(8.54562 -0.402431 -7.89191)
(8.595 -0.465188 -7.88567)
(8.65542 -0.529007 -7.87991)
(8.72386 -0.593178 -7.87334)
(8.80562 -0.654696 -7.86776)
(8.8952 -0.711157 -7.86164)
(8.99758 -0.759726 -7.85654)
(9.10446 -0.797342 -7.85113)
(9.21986 -0.822044 -7.8463)
(9.33259 -0.832731 -7.84131)
(9.44817 -0.830034 -7.83684)
(9.5546 -0.813886 -7.83268)
(9.66006 -0.786613 -7.82936)
(9.75162 -0.748976 -7.82654)
(9.84075 -0.703827 -7.82503)
(9.91245 -0.651459 -7.82424)
(9.98221 -0.595168 -7.82468)
(10.032 -0.534856 -7.82568)
(10.0822 -0.474131 -7.828)
(10.1103 -0.41223 -7.8307)
(10.1427 -0.352999 -7.83475)
(10.1508 -0.294826 -7.8389)
(10.1681 -0.241538 -7.84429)
(10.159 -0.190338 -7.84902)
(10.1644 -0.145559 -7.85483)
(10.142 -0.102982 -7.8596)
(10.1383 -0.0680555 -7.86505)
(10.1065 -0.0341932 -7.86957)
(10.0959 -0.00965088 -7.87386)
(10.0502 0.0224732 -7.87872)
(8.32992 -0.0106238 -7.88225)
(8.34111 -0.0256512 -7.89355)
(8.3511 -0.048804 -7.90258)
(8.36087 -0.079564 -7.90713)
(8.37432 -0.117692 -7.90897)
(8.38882 -0.162296 -7.90797)
(8.40685 -0.213056 -7.90499)
(8.42772 -0.269321 -7.90042)
(8.4537 -0.331117 -7.8944)
(8.48528 -0.398417 -7.88783)
(8.52441 -0.470384 -7.88)
(8.5724 -0.547398 -7.87235)
(8.63159 -0.626563 -7.864)
(8.70238 -0.707722 -7.85598)
(8.788 -0.78617 -7.84846)
(8.88595 -0.859447 -7.84093)
(8.99901 -0.922846 -7.8349)
(9.12075 -0.972191 -7.8286)
(9.25188 -1.00408 -7.82341)
(9.38121 -1.01759 -7.81792)
(9.51299 -1.01375 -7.81351)
(9.63486 -0.992935 -7.80989)
(9.75484 -0.957917 -7.80806)
(9.8584 -0.909341 -7.80697)
(9.9589 -0.851517 -7.80822)
(10.0395 -0.78578 -7.81116)
(10.1174 -0.715697 -7.81639)
(10.1715 -0.64125 -7.82258)
(10.2258 -0.566352 -7.83033)
(10.2536 -0.490145 -7.83822)
(10.2855 -0.416452 -7.84672)
(10.2876 -0.344006 -7.85425)
(10.2999 -0.277297 -7.86229)
(10.2803 -0.213707 -7.86885)
(10.2789 -0.158506 -7.87627)
(10.2442 -0.10662 -7.88185)
(10.2341 -0.064485 -7.88842)
(10.1901 -0.0239889 -7.89339)
(10.1741 0.00506074 -7.89829)
(10.1141 0.0432279 -7.90371)
(8.33115 -0.0164426 -7.88304)
(8.34058 -0.0319956 -7.89264)
(8.35136 -0.0566163 -7.90225)
(8.35813 -0.0897166 -7.90477)
(8.37118 -0.131639 -7.90709)
(8.381 -0.180912 -7.90328)
(8.39707 -0.238246 -7.90042)
(8.41185 -0.301954 -7.89237)
(8.43443 -0.373967 -7.88569)
(8.45957 -0.452546 -7.8756)
(8.49487 -0.539009 -7.8658)
(8.53809 -0.631962 -7.85558)
(8.59551 -0.729982 -7.84378)
(8.66655 -0.831628 -7.83451)
(8.75636 -0.9319 -7.82336)
(8.86362 -1.0268 -7.81529)
(8.99027 -1.1101 -7.80753)
(9.13193 -1.17486 -7.80184)
(9.28355 -1.21524 -7.79584)
(9.43694 -1.23338 -7.79233)
(9.59078 -1.22614 -7.7902)
(9.73777 -1.20003 -7.79205)
(9.87891 -1.15567 -7.79811)
(10.0031 -1.09718 -7.80828)
(10.1155 -1.02371 -7.81991)
(10.2018 -0.940097 -7.83138)
(10.2798 -0.85086 -7.84431)
(10.3276 -0.755213 -7.85539)
(10.3694 -0.656895 -7.86535)
(10.3803 -0.558493 -7.87446)
(10.3954 -0.463745 -7.8822)
(10.38 -0.37399 -7.88974)
(10.3792 -0.29269 -7.89851)
(10.3446 -0.217196 -7.90608)
(10.3331 -0.151728 -7.91457)
(10.2831 -0.0911429 -7.92107)
(10.2637 -0.0419035 -7.92837)
(10.2031 0.00502015 -7.93351)
(10.179 0.0384165 -7.93894)
(10.1001 0.0815305 -7.94341)
(8.33185 -0.0193959 -7.88424)
(8.33999 -0.0355626 -7.89193)
(8.3511 -0.0602525 -7.90195)
(8.35493 -0.0969432 -7.90209)
(8.36661 -0.143003 -7.90509)
(8.37114 -0.197427 -7.89733)
(8.38396 -0.26072 -7.89568)
(8.39098 -0.331949 -7.88166)
(8.40853 -0.413751 -7.87681)
(8.42408 -0.504445 -7.85887)
(8.454 -0.606278 -7.85075)
(8.48756 -0.717785 -7.83278)
(8.54286 -0.838097 -7.82022)
(8.60868 -0.965179 -7.80696)
(8.70449 -1.0939 -7.7914)
(8.81991 -1.21739 -7.78448)
(8.965 -1.32771 -7.77409)
(9.13222 -1.41303 -7.7712)
(9.3157 -1.46461 -7.76698)
(9.50639 -1.4878 -7.7734)
(9.70179 -1.48594 -7.79055)
(9.87447 -1.44989 -7.81006)
(10.0273 -1.38519 -7.83301)
(10.1457 -1.29729 -7.85251)
(10.2437 -1.19276 -7.86806)
(10.3092 -1.07713 -7.88208)
(10.3599 -0.953304 -7.89235)
(10.3827 -0.829044 -7.90288)
(10.4022 -0.7068 -7.9133)
(10.3931 -0.58913 -7.92294)
(10.3887 -0.478077 -7.93384)
(10.3518 -0.373757 -7.94282)
(10.33 -0.278042 -7.95143)
(10.2723 -0.190983 -7.95777)
(10.241 -0.114966 -7.96485)
(10.1684 -0.0469342 -7.96912)
(10.134 0.00838562 -7.97474)
(10.0536 0.0591988 -7.9774)
(10.02 0.0946769 -7.98092)
(9.92207 0.140174 -7.98299)
(8.33094 -0.0204583 -7.88252)
(8.34021 -0.0378965 -7.89148)
(8.34917 -0.0645458 -7.89998)
(8.35237 -0.103712 -7.90052)
(8.35918 -0.152606 -7.90098)
(8.3606 -0.211262 -7.89233)
(8.36513 -0.28025 -7.88818)
(8.36659 -0.358545 -7.8707)
(8.37185 -0.449824 -7.86511)
(8.38005 -0.553195 -7.83897)
(8.39482 -0.669997 -7.83384)
(8.41981 -0.804491 -7.80212)
(8.46461 -0.948043 -7.79521)
(8.52113 -1.10906 -7.76828)
(8.62376 -1.27462 -7.75519)
(8.74352 -1.43374 -7.74684)
(8.91158 -1.58638 -7.73525)
(9.12199 -1.69578 -7.74014)
(9.3687 -1.77962 -7.76348)
(9.60428 -1.80595 -7.80647)
(9.80505 -1.77321 -7.84247)
(9.96471 -1.69882 -7.87842)
(10.0869 -1.59344 -7.90377)
(10.1686 -1.46585 -7.92681)
(10.2228 -1.3248 -7.94563)
(10.2429 -1.17554 -7.95959)
(10.2472 -1.02189 -7.96907)
(10.2239 -0.868897 -7.97606)
(10.1961 -0.718538 -7.98074)
(10.1434 -0.57585 -7.9847)
(10.0971 -0.441512 -7.98798)
(10.0257 -0.319646 -7.99106)
(9.9728 -0.20947 -7.99419)
(9.88967 -0.11343 -7.99675)
(9.83803 -0.030075 -8)
(9.74917 0.0405316 -8.00158)
(9.70432 0.0978754 -8.00443)
(9.61299 0.147567 -8.00513)
(9.57447 0.182224 -8.00651)
(9.46873 0.22478 -8.0075)
(8.32897 -0.0197684 -7.87883)
(8.34081 -0.0395951 -7.89187)
(8.34617 -0.0695604 -7.89694)
(8.34944 -0.10852 -7.90047)
(8.34963 -0.15922 -7.89482)
(8.34815 -0.218042 -7.88983)
(8.34139 -0.293591 -7.87671)
(8.33687 -0.374414 -7.863)
(8.32389 -0.478992 -7.84681)
(8.32562 -0.589837 -7.8217)
(8.31172 -0.727018 -7.80847)
(8.33455 -0.885922 -7.76974)
(8.34512 -1.05167 -7.76286)
(8.40063 -1.26775 -7.71933)
(8.49948 -1.46575 -7.71854)
(8.61024 -1.68165 -7.6952)
(8.82779 -1.90275 -7.697)
(9.1327 -2.07503 -7.75859)
(9.40675 -2.13851 -7.8311)
(9.62326 -2.11302 -7.89136)
(9.77651 -2.02839 -7.9458)
(9.86188 -1.89812 -7.98969)
(9.89028 -1.73632 -8.0182)
(9.86978 -1.55263 -8.03548)
(9.81904 -1.35752 -8.03935)
(9.74192 -1.16119 -8.03374)
(9.65894 -0.968014 -8.02244)
(9.56514 -0.783769 -8.01097)
(9.47876 -0.609674 -8.00051)
(9.38468 -0.451017 -7.99365)
(9.30595 -0.306105 -7.98881)
(9.21749 -0.17983 -7.98728)
(9.15009 -0.0674515 -7.98696)
(9.06722 0.0255864 -7.98864)
(9.01235 0.106277 -7.9904)
(8.93286 0.169244 -7.99311)
(8.89047 0.222094 -7.99518)
(8.81393 0.262398 -7.9984)
(8.78381 0.291318 -7.9991)
(8.70375 0.323127 -8.0048)
(8.32586 -0.0207382 -7.87796)
(8.34187 -0.0409598 -7.89205)
(8.3418 -0.0712785 -7.8945)
(8.34719 -0.110068 -7.89938)
(8.33776 -0.16293 -7.88878)
(8.33438 -0.220702 -7.88634)
(8.31327 -0.301815 -7.86396)
(8.30035 -0.38048 -7.85523)
(8.26799 -0.502047 -7.82405)
(8.25283 -0.607396 -7.80539)
(8.21169 -0.783033 -7.77401)
(8.21646 -0.941516 -7.73806)
(8.18061 -1.15916 -7.71586)
(8.24217 -1.42581 -7.67289)
(8.29434 -1.65593 -7.66544)
(8.40582 -1.98372 -7.6365)
(8.75194 -2.3339 -7.73632)
(9.07418 -2.45853 -7.85131)
(9.29026 -2.45803 -7.95648)
(9.38194 -2.34542 -8.04214)
(9.35782 -2.16079 -8.08914)
(9.24104 -1.92795 -8.10716)
(9.06843 -1.67302 -8.097)
(8.87519 -1.41367 -8.07591)
(8.68501 -1.16708 -8.03899)
(8.50818 -0.941061 -7.99537)
(8.36155 -0.734923 -7.95611)
(8.23704 -0.548697 -7.92868)
(8.14079 -0.379743 -7.91243)
(8.05703 -0.230306 -7.9064)
(7.99604 -0.0971767 -7.90672)
(7.93874 0.0161426 -7.91212)
(7.90038 0.114516 -7.91972)
(7.85752 0.19322 -7.92922)
(7.83241 0.259439 -7.93777)
(7.7977 0.307734 -7.94795)
(7.7824 0.347216 -7.95497)
(7.75504 0.373808 -7.96603)
(7.74715 0.391439 -7.96848)
(7.73123 0.408243 -7.98685)
(8.32124 -0.022151 -7.87833)
(8.34417 -0.0430976 -7.89148)
(8.33516 -0.0707936 -7.89307)
(8.34763 -0.110113 -7.89645)
(8.3204 -0.159864 -7.88395)
(8.32445 -0.219574 -7.88061)
(8.27474 -0.29746 -7.8516)
(8.2656 -0.380258 -7.846)
(8.19585 -0.504282 -7.79904)
(8.16834 -0.612884 -7.78801)
(8.09422 -0.816709 -7.73541)
(8.04512 -0.96625 -7.69841)
(7.99537 -1.27469 -7.67093)
(7.99625 -1.53585 -7.61167)
(7.97818 -1.85923 -7.58741)
(8.18103 -2.40597 -7.68693)
(8.57423 -2.76169 -7.84068)
(8.74154 -2.73639 -8.04048)
(8.68469 -2.5881 -8.10745)
(8.45716 -2.32246 -8.12893)
(8.07357 -1.9629 -8.10105)
(7.65638 -1.60068 -8.05556)
(7.27418 -1.27061 -7.99349)
(6.974 -0.985417 -7.94231)
(6.73232 -0.753507 -7.86411)
(6.55782 -0.565388 -7.79382)
(6.45084 -0.401691 -7.75092)
(6.39042 -0.254118 -7.73723)
(6.36745 -0.118113 -7.74359)
(6.36301 0.00389272 -7.76204)
(6.37767 0.113283 -7.78554)
(6.39684 0.204699 -7.81083)
(6.42504 0.282873 -7.836)
(6.45287 0.340751 -7.85965)
(6.48317 0.389016 -7.88009)
(6.51711 0.417702 -7.89962)
(6.5447 0.444099 -7.91526)
(6.58966 0.45152 -7.9338)
(6.6157 0.462356 -7.9446)
(6.68408 0.460752 -7.97531)
(8.32205 -0.0207762 -7.87768)
(8.34396 -0.0415666 -7.89067)
(8.33373 -0.0653278 -7.89257)
(8.34266 -0.104378 -7.89348)
(8.30952 -0.148224 -7.881)
(8.30619 -0.20916 -7.87416)
(8.24228 -0.275572 -7.84132)
(8.2203 -0.372595 -7.83649)
(8.1187 -0.470267 -7.77177)
(8.07655 -0.618513 -7.77725)
(7.94195 -0.782471 -7.67842)
(7.85491 -0.997284 -7.67791)
(7.75965 -1.29645 -7.60611)
(7.61435 -1.63111 -7.51458)
(7.6059 -2.08481 -7.63045)
(7.845 -2.84423 -7.76842)
(7.89333 -2.95555 -8.05743)
(7.71395 -2.77496 -8.09256)
(7.15912 -2.34255 -7.99718)
(6.30575 -1.75908 -7.86895)
(5.55173 -1.26342 -7.79197)
(5.00375 -0.889708 -7.76269)
(4.66653 -0.625169 -7.7374)
(4.49053 -0.419682 -7.70329)
(4.32153 -0.309101 -7.58036)
(4.2887 -0.236563 -7.53055)
(4.32936 -0.157035 -7.52584)
(4.41108 -0.057873 -7.55835)
(4.51589 0.0529814 -7.60646)
(4.62623 0.159128 -7.65744)
(4.73976 0.253274 -7.70541)
(4.84937 0.328581 -7.74891)
(4.95567 0.38804 -7.78799)
(5.06123 0.428021 -7.82169)
(5.15742 0.458986 -7.85214)
(5.26544 0.47187 -7.87769)
(5.34663 0.484871 -7.90086)
(5.46678 0.479575 -7.92514)
(5.53196 0.482571 -7.94136)
(5.69392 0.468748 -7.99067)
(8.32832 -0.0258787 -7.87986)
(8.34083 -0.0375421 -7.88783)
(8.33723 -0.0612805 -7.89338)
(8.33363 -0.0885736 -7.88854)
(8.30738 -0.137283 -7.88019)
(8.27489 -0.180566 -7.86445)
(8.22924 -0.258742 -7.83774)
(8.14711 -0.325939 -7.81534)
(8.07184 -0.445767 -7.76301)
(7.94274 -0.554745 -7.74195)
(7.80531 -0.748142 -7.64204)
(7.62155 -0.939143 -7.65424)
(7.47054 -1.25439 -7.49442)
(7.09025 -1.65215 -7.51457)
(7.26996 -2.1884 -7.72825)
(6.74128 -3.0368 -7.84458)
(6.67561 -2.98336 -8.06544)
(5.9088 -2.50881 -7.79512)
(4.43051 -1.55781 -7.4269)
(3.4178 -0.965414 -7.40249)
(2.78692 -0.609589 -7.49537)
(2.47261 -0.368227 -7.58361)
(2.36714 -0.245515 -7.61543)
(2.31043 -0.156094 -7.5877)
(2.30395 -0.221857 -7.47741)
(2.37416 -0.222954 -7.41291)
(2.5241 -0.139689 -7.43843)
(2.71667 -0.00432195 -7.50003)
(2.92027 0.124301 -7.5695)
(3.12153 0.230951 -7.63487)
(3.31757 0.313884 -7.69325)
(3.50416 0.373463 -7.7443)
(3.68104 0.41585 -7.78944)
(3.85497 0.441426 -7.82732)
(4.01252 0.45908 -7.86273)
(4.18404 0.462417 -7.89036)
(4.31628 0.466577 -7.91964)
(4.50199 0.454705 -7.94572)
(4.6029 0.45291 -7.97027)
(4.85179 0.432917 -8.03813)
(8.33028 -0.0196192 -7.87983)
(8.33996 -0.031439 -7.88618)
(8.33779 -0.0509934 -7.89329)
(8.32637 -0.0729248 -7.8854)
(8.30298 -0.117759 -7.87817)
(8.25005 -0.146104 -7.85713)
(8.20733 -0.225851 -7.83228)
(8.09211 -0.264484 -7.79829)
(8.00901 -0.392521 -7.75419)
(7.83136 -0.459358 -7.70367)
(7.65562 -0.662799 -7.63456)
(7.42508 -0.79427 -7.58571)
(7.08056 -1.14211 -7.45913)
(6.76835 -1.37468 -7.54931)
(6.50818 -2.05953 -7.79193)
(5.24663 -2.5193 -7.81792)
(1.52051 -0.283701 -7.45476)
(1.41364 -0.295408 -7.40127)
(1.41272 -0.196307 -7.43893)
(1.53798 -0.0551201 -7.50894)
(1.76259 0.0805036 -7.59328)
(1.99794 0.186016 -7.66421)
(2.23825 0.264731 -7.72442)
(2.47415 0.32047 -7.77611)
(2.70041 0.358794 -7.82278)
(2.9232 0.381117 -7.86275)
(3.12677 0.394985 -7.9013)
(3.3441 0.396657 -7.9305)
(3.51745 0.39772 -7.96432)
(3.75137 0.38561 -7.99076)
(3.88137 0.382071 -8.02633)
(4.19889 0.362414 -8.10982)
(8.32914 -0.0150289 -7.87832)
(8.34011 -0.0238246 -7.88666)
(8.33638 -0.038936 -7.89057)
(8.32271 -0.0549386 -7.88584)
(8.2947 -0.0885791 -7.87277)
(8.2366 -0.110306 -7.85631)
(8.17935 -0.171078 -7.82123)
(8.05634 -0.200952 -7.79374)
(7.94504 -0.300449 -7.73427)
(7.74442 -0.349341 -7.69064)
(7.53054 -0.515772 -7.60592)
(7.23169 -0.603904 -7.54913)
(6.85169 -0.888399 -7.46175)
(6.47238 -1.02115 -7.53099)
(6.14684 -1.44392 -7.8658)
(5.00803 -1.53467 -7.88815)
(1.29509 -0.354726 -7.49651)
(1.08929 -0.366993 -7.39862)
(0.965033 -0.264269 -7.42057)
(0.951702 -0.142579 -7.48802)
(1.10955 -0.00876502 -7.58559)
(1.32246 0.0981756 -7.67249)
(1.55469 0.173882 -7.74359)
(1.79684 0.226661 -7.80451)
(2.03808 0.261997 -7.85775)
(2.28209 0.282809 -7.90234)
(2.51051 0.295146 -7.94492)
(2.75478 0.297426 -7.97755)
(2.95544 0.297996 -8.01683)
(3.21953 0.288744 -8.04575)
(3.37042 0.285319 -8.09245)
(3.73371 0.270067 -8.18607)
(8.33058 -0.00779052 -7.87867)
(8.3395 -0.0158063 -7.88553)
(8.33489 -0.0251132 -7.88977)
(8.31999 -0.0338213 -7.88429)
(8.29007 -0.0539845 -7.87174)
(8.22476 -0.0694975 -7.85245)
(8.16252 -0.105229 -7.81752)
(8.02678 -0.127563 -7.78591)
(7.90283 -0.185497 -7.72552)
(7.67923 -0.223044 -7.67687)
(7.44005 -0.318778 -7.58809)
(7.10285 -0.384919 -7.5329)
(6.66131 -0.548026 -7.43124)
(6.25073 -0.643494 -7.55899)
(5.87643 -0.918081 -7.86538)
(4.73773 -0.960787 -7.86953)
(1.23856 -0.23537 -7.51061)
(0.978075 -0.255168 -7.38699)
(0.762414 -0.184475 -7.40453)
(0.68253 -0.110968 -7.47758)
(0.760991 -0.0317993 -7.57665)
(0.944134 0.0463357 -7.68131)
(1.15957 0.0971322 -7.76158)
(1.3949 0.133645 -7.83039)
(1.6385 0.157818 -7.88907)
(1.89008 0.17224 -7.93731)
(2.1302 0.180758 -7.98261)
(2.38813 0.182683 -8.01744)
(2.6042 0.183027 -8.06033)
(2.88489 0.177413 -8.09319)
(3.0487 0.175131 -8.14868)
(3.43752 0.165812 -8.24725)
(8.33106 -0.0021899 -7.87792)
(8.33666 -0.00666311 -7.88562)
(8.33221 -0.00895156 -7.88793)
(8.31769 -0.011165 -7.88397)
(8.28681 -0.0181173 -7.87071)
(8.21937 -0.0231092 -7.85195)
(8.15411 -0.035759 -7.81468)
(8.01116 -0.0429427 -7.78367)
(7.88317 -0.0633799 -7.71988)
(7.64293 -0.0752666 -7.67188)
(7.40178 -0.108866 -7.58031)
(7.0308 -0.129482 -7.52559)
(6.60524 -0.182166 -7.43956)
(6.17533 -0.209955 -7.57264)
(5.79854 -0.284072 -7.89051)
(4.67265 -0.292333 -7.89233)
(1.22376 -0.0806668 -7.51211)
(0.941435 -0.0885231 -7.38147)
(0.680124 -0.0653106 -7.39696)
(0.571645 -0.0405838 -7.4773)
(0.615949 -0.0150628 -7.57522)
(0.774467 0.0133539 -7.68751)
(0.981619 0.030995 -7.77354)
(1.2092 0.043974 -7.84567)
(1.45283 0.052536 -7.90763)
(1.70577 0.0576573 -7.95754)
(1.95039 0.0607099 -8.00434)
(2.21362 0.0614579 -8.04027)
(2.43632 0.0615736 -8.08472)
(2.72417 0.0596994 -8.12002)
(2.89402 0.0589286 -8.18029)
(3.29369 0.0558314 -8.28062)
(8.33109 0.0021962 -7.87791)
(8.33669 0.00666659 -7.88561)
(8.33224 0.00895827 -7.88792)
(8.31772 0.0111714 -7.88397)
(8.28684 0.0181226 -7.8707)
(8.21941 0.0231133 -7.85194)
(8.15415 0.0357592 -7.81468)
(8.0112 0.0429425 -7.78366)
(7.88321 0.0633775 -7.71987)
(7.64295 0.0752601 -7.67187)
(7.40183 0.108862 -7.5803)
(7.03082 0.129471 -7.52559)
(6.60529 0.182157 -7.43955)
(6.17537 0.209942 -7.57263)
(5.79858 0.28406 -7.8905)
(4.67269 0.292329 -7.89232)
(1.22376 0.0806231 -7.51211)
(0.941431 0.0884765 -7.38147)
(0.680115 0.0652735 -7.39696)
(0.57163 0.0405578 -7.47729)
(0.615933 0.0150465 -7.57521)
(0.774447 -0.0133584 -7.68751)
(0.981597 -0.0309922 -7.77354)
(1.20917 -0.0439655 -7.84567)
(1.4528 -0.0525239 -7.90763)
(1.70575 -0.0576429 -7.95753)
(1.95037 -0.0606946 -8.00434)
(2.2136 -0.0614423 -8.04027)
(2.4363 -0.0615589 -8.08471)
(2.72415 -0.0596857 -8.12001)
(2.894 -0.0589172 -8.18029)
(3.29367 -0.0558231 -8.28061)
(8.3306 0.00778398 -7.87868)
(8.33951 0.0158005 -7.88553)
(8.33491 0.0251139 -7.88977)
(8.32001 0.0338181 -7.88429)
(8.29009 0.0539807 -7.87175)
(8.22478 0.0694914 -7.85245)
(8.16254 0.105224 -7.81753)
(8.02681 0.127555 -7.78592)
(7.90285 0.185484 -7.72552)
(7.67927 0.223034 -7.67688)
(7.44006 0.318758 -7.58809)
(7.1029 0.384907 -7.53292)
(6.66133 0.548003 -7.43124)
(6.25076 0.643477 -7.55899)
(5.87646 0.918072 -7.86537)
(4.73776 0.960786 -7.86952)
(1.23856 0.235331 -7.51061)
(0.978062 0.255128 -7.38698)
(0.762383 0.184442 -7.40452)
(0.682488 0.110946 -7.47757)
(0.760937 0.0317892 -7.57664)
(0.944071 -0.0463374 -7.6813)
(1.15951 -0.097127 -7.76157)
(1.39483 -0.133635 -7.83038)
(1.63843 -0.157805 -7.88906)
(1.89 -0.172225 -7.9373)
(2.13012 -0.180743 -7.9826)
(2.38806 -0.182668 -8.01743)
(2.60413 -0.183013 -8.06032)
(2.88482 -0.1774 -8.09318)
(3.04864 -0.175121 -8.14868)
(3.43745 -0.165805 -8.24724)
(8.32916 0.0150467 -7.87831)
(8.34013 0.0238403 -7.88665)
(8.3364 0.0389549 -7.89056)
(8.32273 0.0549534 -7.88583)
(8.29473 0.0885983 -7.87276)
(8.23662 0.110318 -7.8563)
(8.17938 0.1711 -7.82122)
(8.05635 0.200956 -7.79373)
(7.94508 0.300472 -7.73427)
(7.74443 0.349336 -7.69063)
(7.53059 0.515796 -7.60592)
(7.23169 0.603886 -7.54911)
(6.85176 0.888406 -7.46178)
(6.47241 1.02116 -7.53096)
(6.14688 1.44392 -7.86577)
(5.00811 1.53468 -7.88812)
(1.29508 0.354699 -7.49651)
(1.08926 0.366969 -7.39861)
(0.964975 0.264251 -7.42055)
(0.951622 0.14257 -7.488)
(1.10944 0.00876761 -7.58557)
(1.32235 -0.098169 -7.67247)
(1.55457 -0.173871 -7.74357)
(1.79672 -0.226648 -7.80449)
(2.03795 -0.261983 -7.85772)
(2.28197 -0.282794 -7.90232)
(2.51039 -0.295132 -7.9449)
(2.75466 -0.297412 -7.97753)
(2.95532 -0.297984 -8.0168)
(3.21942 -0.288734 -8.04573)
(3.37031 -0.285312 -8.09243)
(3.7336 -0.270063 -8.18605)
(8.33022 0.0195346 -7.87988)
(8.3399 0.0313509 -7.88623)
(8.33774 0.0509089 -7.89334)
(8.32631 0.072837 -7.88544)
(8.30291 0.11767 -7.87822)
(8.25 0.146012 -7.85718)
(8.20726 0.225761 -7.83233)
(8.09205 0.264428 -7.79832)
(8.00893 0.392449 -7.75423)
(7.83131 0.459332 -7.70368)
(7.65555 0.662741 -7.63458)
(7.42502 0.794233 -7.58573)
(7.08052 1.14206 -7.45911)
(6.76832 1.37462 -7.54934)
(6.50817 2.05945 -7.79194)
(5.24667 2.5193 -7.81791)
(1.52047 0.283719 -7.45476)
(1.41358 0.29542 -7.40125)
(1.41262 0.196316 -7.43891)
(1.53783 0.0551335 -7.50891)
(1.76243 -0.0804889 -7.59325)
(1.99777 -0.186 -7.66417)
(2.23806 -0.264715 -7.72439)
(2.47396 -0.320455 -7.77608)
(2.70022 -0.358781 -7.82274)
(2.92301 -0.381105 -7.86271)
(3.12659 -0.394976 -7.90126)
(3.34392 -0.396649 -7.93046)
(3.51728 -0.397714 -7.96429)
(3.7512 -0.385607 -7.99073)
(3.88121 -0.38207 -8.0263)
(4.19874 -0.362416 -8.10979)
(8.32833 0.0258108 -7.87988)
(8.34083 0.0374658 -7.88785)
(8.33724 0.0612209 -7.8934)
(8.33361 0.0884875 -7.88857)
(8.3074 0.13722 -7.88021)
(8.27487 0.180463 -7.86447)
(8.22924 0.258722 -7.83776)
(8.14712 0.325811 -7.81536)
(8.0718 0.445737 -7.76302)
(7.94277 0.554609 -7.74198)
(7.80525 0.748061 -7.64205)
(7.62155 0.939087 -7.65425)
(7.47053 1.25431 -7.49443)
(7.09023 1.6521 -7.51459)
(7.26998 2.18834 -7.72824)
(6.74129 3.03677 -7.84461)
(6.67573 2.98333 -8.06536)
(5.90899 2.50878 -7.79506)
(4.43057 1.55777 -7.42681)
(3.41776 0.965476 -7.40238)
(2.78681 0.609658 -7.49529)
(2.47246 0.368246 -7.58356)
(2.36697 0.245508 -7.61539)
(2.31025 0.156105 -7.58765)
(2.30378 0.2219 -7.47737)
(2.37397 0.223009 -7.41287)
(2.5239 0.139733 -7.43839)
(2.71645 0.00435482 -7.49998)
(2.92004 -0.124273 -7.56945)
(3.12129 -0.230928 -7.63482)
(3.31733 -0.313865 -7.6932)
(3.50392 -0.373448 -7.74425)
(3.6808 -0.41584 -7.78939)
(3.85473 -0.441421 -7.82727)
(4.01229 -0.459078 -7.86268)
(4.18382 -0.462418 -7.89031)
(4.31607 -0.466581 -7.91959)
(4.50179 -0.454712 -7.94567)
(4.6027 -0.452919 -7.97023)
(4.85161 -0.432929 -8.03809)
(8.32205 0.0207957 -7.87767)
(8.34397 0.0415709 -7.89067)
(8.33376 0.0653557 -7.89256)
(8.34265 0.104372 -7.89349)
(8.30961 0.148188 -7.88097)
(8.30611 0.209185 -7.87421)
(8.24243 0.275545 -7.84128)
(8.22008 0.372697 -7.83648)
(8.11888 0.470239 -7.77176)
(8.07638 0.618504 -7.77726)
(7.94208 0.782488 -7.67841)
(7.8548 0.997242 -7.67792)
(7.75968 1.29641 -7.60609)
(7.61437 1.63113 -7.51462)
(7.60588 2.08465 -7.63051)
(7.84515 2.84399 -7.76842)
(7.89347 2.95551 -8.05724)
(7.71412 2.77496 -8.09232)
(7.15931 2.34263 -7.99689)
(6.30564 1.759 -7.86864)
(5.55139 1.26318 -7.79172)
(5.00331 0.889444 -7.76251)
(4.66607 0.624978 -7.73726)
(4.49007 0.419571 -7.70316)
(4.3211 0.309065 -7.58024)
(4.28832 0.236568 -7.53044)
(4.32903 0.157053 -7.52574)
(4.41077 0.0578893 -7.55827)
(4.5156 -0.0529683 -7.60638)
(4.62595 -0.159117 -7.65737)
(4.73948 -0.253269 -7.70534)
(4.8491 -0.328581 -7.74884)
(4.95542 -0.388045 -7.78792)
(5.06099 -0.42803 -7.82163)
(5.15719 -0.458999 -7.85208)
(5.26522 -0.471885 -7.87763)
(5.34642 -0.48489 -7.90081)
(5.46659 -0.479597 -7.92509)
(5.53177 -0.482594 -7.94131)
(5.69374 -0.468774 -7.99062)
(8.32119 0.0220915 -7.87835)
(8.34419 0.0431102 -7.89146)
(8.33508 0.0707067 -7.8931)
(8.34768 0.110145 -7.89642)
(8.32035 0.159697 -7.88395)
(8.32445 0.219742 -7.88066)
(8.27478 0.297197 -7.85151)
(8.26551 0.380522 -7.84614)
(8.19584 0.504071 -7.79888)
(8.16836 0.613029 -7.78815)
(8.09396 0.816716 -7.73526)
(8.04527 0.966359 -7.69851)
(7.99533 1.27439 -7.67091)
(7.99618 1.53576 -7.61165)
(7.97813 1.85916 -7.58759)
(8.18096 2.40594 -7.68709)
(8.57442 2.76137 -7.84072)
(8.74156 2.73617 -8.04038)
(8.68466 2.58818 -8.10716)
(8.45719 2.32291 -8.12856)
(8.07334 1.96336 -8.10065)
(7.65589 1.60101 -8.05519)
(7.27352 1.27077 -7.99318)
(6.97329 0.985454 -7.94207)
(6.73167 0.753477 -7.86392)
(6.55728 0.565329 -7.79367)
(6.4504 0.401621 -7.75079)
(6.39007 0.254048 -7.73712)
(6.36714 0.118052 -7.7435)
(6.36274 -0.00394316 -7.76196)
(6.37742 -0.113326 -7.78546)
(6.39661 -0.204736 -7.81077)
(6.42484 -0.282907 -7.83594)
(6.45269 -0.340784 -7.85959)
(6.48301 -0.38905 -7.88003)
(6.51696 -0.417737 -7.89957)
(6.54456 -0.444136 -7.91521)
(6.58953 -0.451558 -7.93376)
(6.61558 -0.462395 -7.94456)
(6.68398 -0.460793 -7.97527)
(8.3258 0.0207802 -7.87796)