# p  FACE_DATA 384
# x y z  p
0.625 3.70074e-16 0.5 -36.2528
1.875 7.4015e-17 0.5 -26.3686
3.125 2.22045e-16 0.5 -21.81
4.375 5.18105e-16 0.5 -19.5419
5.625 3.70074e-16 0.5 -17.669
6.875 3.70074e-16 0.5 -16.0989
8.125 5.9212e-16 0.5 -14.7921
9.375 5.9212e-16 0.5 -13.5781
8.8818e-16 0.625 0.5 18.6596
10 0.625 0.5 -11.3282
3.70075e-16 1.875 0.5 32.4134
10 1.875 0.5 -10.4456
3.70075e-16 3.125 0.5 39.4554
10 3.125 0.5 -9.75135
6.66135e-16 4.375 0.5 42.2602
10 4.375 0.5 -9.37067
6.66135e-16 5.625 0.5 42.2602
10 5.625 0.5 -9.37062
7.40149e-16 6.875 0.5 39.4554
10 6.875 0.5 -9.75117
7.40149e-16 8.125 0.5 32.4132
10 8.125 0.5 -10.4454
8.8818e-16 9.375 0.5 18.6593
0.625 10 0.5 -36.2556
1.875 10 0.5 -26.3711
3.125 10 0.5 -21.8121
4.375 10 0.5 -19.5436
5.625 10 0.5 -17.6703
6.875 10 0.5 -16.0998
8.125 10 0.5 -14.7927
10 9.375 0.5 -11.328
9.375 10 0.5 -13.5784
0.625 6.66133e-16 1.5 -38.9983
1.875 3.70074e-16 1.5 -27.1512
3.125 8.14165e-16 1.5 -22.1837
4.375 1.03621e-15 1.5 -19.8657
5.625 7.40149e-16 1.5 -17.8906
6.875 6.66134e-16 1.5 -16.2604
8.125 1.03621e-15 1.5 -14.8982
9.375 1.18424e-15 1.5 -13.6796
1.25825e-15 0.625 1.5 19.6918
10 0.625 1.5 -11.3556
8.14164e-16 1.875 1.5 32.5174
10 1.875 1.5 -10.3873
9.62195e-16 3.125 1.5 39.306
10 3.125 1.5 -9.67898
1.11022e-15 4.375 1.5 42.0522
10 4.375 1.5 -9.30105
1.11022e-15 5.625 1.5 42.0521
10 5.625 1.5 -9.30099
1.18424e-15 6.875 1.5 39.3059
10 6.875 1.5 -9.67881
1.03621e-15 8.125 1.5 32.5173
10 8.125 1.5 -10.387
1.25826e-15 9.375 1.5 19.6915
0.625 10 1.5 -39.0012
1.875 10 1.5 -27.1536
3.125 10 1.5 -22.1855
4.375 10 1.5 -19.8672
5.625 10 1.5 -17.8916
6.875 10 1.5 -16.2611
8.125 10 1.5 -14.8986
10 9.375 1.5 -11.3554
9.375 10 1.5 -13.6797
0.625 2.96059e-16 2.5 -39.0374
1.875 2.96059e-16 2.5 -26.8706
3.125 6.66135e-16 2.5 -22.4422
4.375 3.70075e-16 2.5 -20.2993
5.625 2.22045e-16 2.5 -18.3169
6.875 2.9606e-16 2.5 -16.7001
8.125 5.9212e-16 2.5 -15.3867
9.375 8.14164e-16 2.5 -14.3894
6.66134e-16 0.625 2.5 23.5555
10 0.625 2.5 -12.374
5.92119e-16 1.875 2.5 35.236
10 1.875 2.5 -10.9725
6.66135e-16 3.125 2.5 41.5849
10 3.125 2.5 -10.1439
3.70075e-16 4.375 2.5 44.2052
10 4.375 2.5 -9.7428
3.70075e-16 5.625 2.5 44.2052
10 5.625 2.5 -9.74274
3.70075e-16 6.875 2.5 41.5848
10 6.875 2.5 -10.1438
3.70075e-16 8.125 2.5 35.2358
10 8.125 2.5 -10.9722
7.4015e-16 9.375 2.5 23.5552
0.625 10 2.5 -39.0409
1.875 10 2.5 -26.873
3.125 10 2.5 -22.4438
4.375 10 2.5 -20.3006
5.625 10 2.5 -18.3177
6.875 10 2.5 -16.7006
8.125 10 2.5 -15.3868
10 9.375 2.5 -12.3736
9.375 10 2.5 -14.3893
0.625 1.4803e-16 3.5 -38.9229
1.875 3.70074e-16 3.5 -26.8916
3.125 3.70074e-16 3.5 -22.4765
4.375 -1.4803e-16 3.5 -20.39
5.625 -1.4803e-16 3.5 -18.5097
6.875 0 3.5 -17.0196
8.125 2.22045e-16 3.5 -15.8436
9.375 3.70074e-16 3.5 -15.1437
2.96059e-16 0.625 3.5 27.6378
10 0.625 3.5 -13.8078
4.44089e-16 1.875 3.5 38.9244
10 1.875 3.5 -11.9127
2.96059e-16 3.125 3.5 44.9022
10 3.125 3.5 -10.9351
-7.40148e-17 4.375 3.5 47.4359
10 4.375 3.5 -10.5062
-7.40148e-17 5.625 3.5 47.4359
10 5.625 3.5 -10.5062
-7.40148e-17 6.875 3.5 44.9021
10 6.875 3.5 -10.9349
7.40148e-17 8.125 3.5 38.924
10 8.125 3.5 -11.9124
2.96059e-16 9.375 3.5 27.6373
0.625 10 3.5 -38.9279
1.875 10 3.5 -26.8947
3.125 10 3.5 -22.4787
4.375 10 3.5 -20.3916
5.625 10 3.5 -18.5107
6.875 10 3.5 -17.0201
8.125 10 3.5 -15.8438
10 9.375 3.5 -13.8073
9.375 10 3.5 -15.1436
0.625 7.40149e-16 4.5 -38.7452
1.875 8.88179e-16 4.5 -26.7584
3.125 9.62194e-16 4.5 -22.3494
4.375 6.66135e-16 4.5 -20.3404
5.625 6.66135e-16 4.5 -18.5746
6.875 7.40149e-16 4.5 -17.2354
8.125 4.44089e-16 4.5 -16.2117
9.375 5.18104e-16 4.5 -15.8035
6.66134e-16 0.625 4.5 31.2851
10 0.625 4.5 -15.3191
6.66134e-16 1.875 4.5 42.3233
10 1.875 4.5 -12.9831
6.66134e-16 3.125 4.5 48.0381
10 3.125 4.5 -11.8646
5.9212e-16 4.375 4.5 50.5035
10 4.375 4.5 -11.4078
5.9212e-16 5.625 4.5 50.5035
10 5.625 4.5 -11.4078
5.9212e-16 6.875 4.5 48.0379
10 6.875 4.5 -11.8644
6.66135e-16 8.125 4.5 42.3226
10 8.125 4.5 -12.9828
7.40149e-16 9.375 4.5 31.2838
0.625 10 4.5 -38.7527
1.875 10 4.5 -26.7628
3.125 10 4.5 -22.3524
4.375 10 4.5 -20.3426
5.625 10 4.5 -18.5761
6.875 10 4.5 -17.2362
8.125 10 4.5 -16.2121
10 9.375 4.5 -15.3184
9.375 10 4.5 -15.8034
0.625 7.40149e-16 5.5 -38.3395
1.875 8.14164e-16 5.5 -26.3795
3.125 1.40628e-15 5.5 -22.0559
4.375 1.40628e-15 5.5 -20.1662
5.625 1.40628e-15 5.5 -18.5256
6.875 1.33227e-15 5.5 -17.3524
8.125 5.18104e-16 5.5 -16.4998
9.375 5.18104e-16 5.5 -16.3851
1.11022e-15 0.625 5.5 34.4838
10 0.625 5.5 -16.8913
1.03621e-15 1.875 5.5 45.2057
10 1.875 5.5 -14.1607
1.33227e-15 3.125 5.5 50.6499
10 3.125 5.5 -12.9175
1.25825e-15 4.375 5.5 53.0242
10 4.375 5.5 -12.4388
1.18424e-15 5.625 5.5 53.0241
10 5.625 5.5 -12.4388
1.25825e-15 6.875 5.5 50.6496
10 6.875 5.5 -12.9174
1.33227e-15 8.125 5.5 45.2048
10 8.125 5.5 -14.1604
1.4803e-15 9.375 5.5 34.4819
0.625 10 5.5 -38.3487
1.875 10 5.5 -26.3849
3.125 10 5.5 -22.0596
4.375 10 5.5 -20.1688
5.625 10 5.5 -18.5274
6.875 10 5.5 -17.3534
8.125 10 5.5 -16.5002
10 9.375 5.5 -16.8906
9.375 10 5.5 -16.385
0.625 2.96059e-16 6.5 -37.6193
1.875 2.96059e-16 6.5 -25.7284
3.125 1.25825e-15 6.5 -21.5633
4.375 1.18424e-15 6.5 -19.8365
5.625 1.18424e-15 6.5 -18.3478
6.875 1.25825e-15 6.5 -17.3549
8.125 5.18104e-16 6.5 -16.7029
9.375 5.18104e-16 6.5 -16.8976
8.14164e-16 0.625 6.5 37.0687
10 0.625 6.5 -18.5705
8.14164e-16 1.875 6.5 47.2544
10 1.875 6.5 -15.4845
1.11022e-15 3.125 6.5 52.3145
10 3.125 6.5 -14.1402
8.14165e-16 4.375 6.5 54.539
10 4.375 6.5 -13.6507
7.4015e-16 5.625 6.5 54.5389
10 5.625 6.5 -13.6507
9.62195e-16 6.875 6.5 52.3143
10 6.875 6.5 -14.1401
8.14165e-16 8.125 6.5 47.2535
10 8.125 6.5 -15.4842
9.62195e-16 9.375 6.5 37.0665
0.625 10 6.5 -37.6286
1.875 10 6.5 -25.7339
3.125 10 6.5 -21.5671
4.375 10 6.5 -19.8391
5.625 10 6.5 -18.3495
6.875 10 6.5 -17.3559
8.125 10 6.5 -16.7033
10 9.375 6.5 -18.5698
9.375 10 6.5 -16.8976
0.625 5.18104e-16 7.5 -36.5079
1.875 2.22045e-16 7.5 -24.7932
3.125 5.9212e-16 7.5 -20.8459
4.375 7.4015e-16 7.5 -19.3305
5.625 7.4015e-16 7.5 -18.0337
6.875 6.66134e-16 7.5 -17.2371
8.125 4.44089e-16 7.5 -16.8061
9.375 6.66134e-16 7.5 -17.3308
5.92119e-16 0.625 7.5 38.702
10 0.625 7.5 -20.511
6.66134e-16 1.875 7.5 48.0019
10 1.875 7.5 -17.1025
6.66134e-16 3.125 7.5 52.4631
10 3.125 7.5 -15.6821
4.4409e-16 4.375 7.5 54.4397
10 4.375 7.5 -15.1987
5.18105e-16 5.625 7.5 54.4397
10 5.625 7.5 -15.1987
4.44089e-16 6.875 7.5 52.4629
10 6.875 7.5 -15.682
2.96059e-16 8.125 7.5 48.0013
10 8.125 7.5 -17.1023
5.18104e-16 9.375 7.5 38.7003
0.625 10 7.5 -36.5155
1.875 10 7.5 -24.7977
3.125 10 7.5 -20.849
4.375 10 7.5 -19.3327
5.625 10 7.5 -18.0351
6.875 10 7.5 -17.2379
8.125 10 7.5 -16.8064
10 9.375 7.5 -20.5104
9.375 10 7.5 -17.3307
0.625 1.4803e-16 8.5 -34.8652
1.875 7.4015e-17 8.5 -23.7117
3.125 0 8.5 -19.9997
4.375 0 8.5 -18.7026
5.625 0 8.5 -17.6117
6.875 1.4803e-16 8.5 -17.0026
8.125 5.18104e-16 8.5 -16.783
9.375 4.44089e-16 8.5 -17.6514
2.22045e-16 0.625 8.5 39.3716
10 0.625 8.5 -23.4795
2.9606e-16 1.875 8.5 47.3205
10 1.875 8.5 -19.8363
3.70075e-16 3.125 8.5 50.8542
10 3.125 8.5 -18.2949
1.4803e-16 4.375 8.5 52.4335
10 4.375 8.5 -17.8035
2.22045e-16 5.625 8.5 52.4335
10 5.625 8.5 -17.8035
2.96059e-16 6.875 8.5 50.8542
10 6.875 8.5 -18.2948
4.44089e-16 8.125 8.5 47.3203
10 8.125 8.5 -19.8362
4.44089e-16 9.375 8.5 39.3708
0.625 10 8.5 -34.87
1.875 10 8.5 -23.7147
3.125 10 8.5 -20.0016
4.375 10 8.5 -18.7038
5.625 10 8.5 -17.6124
6.875 10 8.5 -17.003
8.125 10 8.5 -16.783
10 9.375 8.5 -23.4792
9.375 10 8.5 -17.6513
0.625 4.4409e-16 9.5 -30.6194
1.875 4.4409e-16 9.5 -22.2147
3.125 2.22045e-16 9.5 -19.1679
4.375 -5e-22 9.5 -18.0528
5.625 -1.4803e-16 9.5 -17.1299
6.875 2.9606e-16 9.5 -16.6829
8.125 9.62194e-16 9.5 -16.6503
9.375 8.14165e-16 9.5 -17.8087
5.18105e-16 0.625 9.5 35.2038
0.625 0.625 10 -30.6071
1.875 0.625 10 -22.83
3.125 0.625 10 -19.4646
4.375 0.625 10 -18.1848
5.625 0.625 10 -17.3398
6.875 0.625 10 -17.1067
8.125 0.625 10 -17.3424
10 0.625 9.5 -27.0516
9.375 0.625 10 -19.269
3.70075e-16 1.875 9.5 40.994
0.625 1.875 10 -32.9211
1.875 1.875 10 -23.6028
3.125 1.875 10 -20.0646
4.375 1.875 10 -18.8968
5.625 1.875 10 -18.0748
6.875 1.875 10 -17.776
8.125 1.875 10 -17.876
10 1.875 9.5 -23.8846
9.375 1.875 10 -19.4355
5.18105e-16 3.125 9.5 43.3646
0.625 3.125 10 -33.8435
1.875 3.125 10 -24.5151
3.125 3.125 10 -20.883
4.375 3.125 10 -19.6219
5.625 3.125 10 -18.6957
6.875 3.125 10 -18.2691
8.125 3.125 10 -18.2428
10 3.125 9.5 -22.3016
9.375 3.125 10 -19.5349
2.9606e-16 4.375 9.5 44.4122
0.625 4.375 10 -34.4455
1.875 4.375 10 -25.0265
3.125 4.375 10 -21.3047
4.375 4.375 10 -19.9884
5.625 4.375 10 -19.0085
6.875 4.375 10 -18.5147
8.125 4.375 10 -18.4195
10 4.375 9.5 -21.7925
9.375 4.375 10 -19.5724
2.22045e-16 5.625 9.5 44.4122
0.625 5.625 10 -34.4453
1.875 5.625 10 -25.0264
3.125 5.625 10 -21.3047
4.375 5.625 10 -19.9883
5.625 5.625 10 -19.0085
6.875 5.625 10 -18.5147
8.125 5.625 10 -18.4194
10 5.625 9.5 -21.7925
9.375 5.625 10 -19.5724
5.9212e-16 6.875 9.5 43.3648
0.625 6.875 10 -33.843
1.875 6.875 10 -24.5149
3.125 6.875 10 -20.8828
4.375 6.875 10 -19.6217
5.625 6.875 10 -18.6956
6.875 6.875 10 -18.269
8.125 6.875 10 -18.2427
10 6.875 9.5 -22.3016
9.375 6.875 10 -19.5349
5.92119e-16 8.125 9.5 40.9941
0.625 8.125 10 -32.9204
1.875 8.125 10 -23.6024
3.125 8.125 10 -20.0643
4.375 8.125 10 -18.8966
5.625 8.125 10 -18.0746
6.875 8.125 10 -17.7758
8.125 8.125 10 -17.8758
10 8.125 9.5 -23.8845
9.375 8.125 10 -19.4354
5.18104e-16 9.375 9.5 35.204
0.625 10 9.5 -30.6207
0.625 9.375 10 -30.6058
1.875 10 9.5 -22.2158
1.875 9.375 10 -22.8293
3.125 10 9.5 -19.1684
3.125 9.375 10 -19.464
4.375 10 9.5 -18.053
4.375 9.375 10 -18.1842
5.625 10 9.5 -17.1299
5.625 9.375 10 -17.3393
6.875 10 9.5 -16.6827
6.875 9.375 10 -17.1062
8.125 10 9.5 -16.6501
8.125 9.375 10 -17.342
10 9.375 9.5 -27.0515
9.375 10 9.5 -17.8084
9.375 9.375 10 -19.2687
