# U  FACE_DATA 384
# x y z  U_x U_y U_z
0.625 3.70074e-16 0.5 0 0 0
1.875 7.4015e-17 0.5 0 0 0
3.125 2.22045e-16 0.5 0 0 0
4.375 5.18105e-16 0.5 0 0 0
5.625 3.70074e-16 0.5 0 0 0
6.875 3.70074e-16 0.5 0 0 0
8.125 5.9212e-16 0.5 0 0 0
9.375 5.9212e-16 0.5 0 0 0
8.8818e-16 0.625 0.5 0 0 0
10 0.625 0.5 0 0 0
3.70075e-16 1.875 0.5 0 0 0
10 1.875 0.5 0 0 0
3.70075e-16 3.125 0.5 0 0 0
10 3.125 0.5 0 0 0
6.66135e-16 4.375 0.5 0 0 0
10 4.375 0.5 0 0 0
6.66135e-16 5.625 0.5 0 0 0
10 5.625 0.5 0 0 0
7.40149e-16 6.875 0.5 0 0 0
10 6.875 0.5 0 0 0
7.40149e-16 8.125 0.5 0 0 0
10 8.125 0.5 0 0 0
8.8818e-16 9.375 0.5 0 0 0
0.625 10 0.5 0 0 0
1.875 10 0.5 0 0 0
3.125 10 0.5 0 0 0
4.375 10 0.5 0 0 0
5.625 10 0.5 0 0 0
6.875 10 0.5 0 0 0
8.125 10 0.5 0 0 0
10 9.375 0.5 0 0 0
9.375 10 0.5 0 0 0
0.625 6.66133e-16 1.5 0 0 0
1.875 3.70074e-16 1.5 0 0 0
3.125 8.14165e-16 1.5 0 0 0
4.375 1.03621e-15 1.5 0 0 0
5.625 7.40149e-16 1.5 0 0 0
6.875 6.66134e-16 1.5 0 0 0
8.125 1.03621e-15 1.5 0 0 0
9.375 1.18424e-15 1.5 0 0 0
1.25825e-15 0.625 1.5 0 0 0
10 0.625 1.5 0 0 0
8.14164e-16 1.875 1.5 0 0 0
10 1.875 1.5 0 0 0
9.62195e-16 3.125 1.5 0 0 0
10 3.125 1.5 0 0 0
1.11022e-15 4.375 1.5 0 0 0
10 4.375 1.5 0 0 0
1.11022e-15 5.625 1.5 0 0 0
10 5.625 1.5 0 0 0
1.18424e-15 6.875 1.5 0 0 0
10 6.875 1.5 0 0 0
1.03621e-15 8.125 1.5 0 0 0
10 8.125 1.5 0 0 0
1.25826e-15 9.375 1.5 0 0 0
0.625 10 1.5 0 0 0
1.875 10 1.5 0 0 0
3.125 10 1.5 0 0 0
4.375 10 1.5 0 0 0
5.625 10 1.5 0 0 0
6.875 10 1.5 0 0 0
8.125 10 1.5 0 0 0
10 9.375 1.5 0 0 0
9.375 10 1.5 0 0 0
0.625 2.96059e-16 2.5 0 0 0
1.875 2.96059e-16 2.5 0 0 0
3.125 6.66135e-16 2.5 0 0 0
4.375 3.70075e-16 2.5 0 0 0
5.625 2.22045e-16 2.5 0 0 0
6.875 2.9606e-16 2.5 0 0 0
8.125 5.9212e-16 2.5 0 0 0
9.375 8.14164e-16 2.5 0 0 0
6.66134e-16 0.625 2.5 0 0 0
10 0.625 2.5 0 0 0
5.92119e-16 1.875 2.5 0 0 0
10 1.875 2.5 0 0 0
6.66135e-16 3.125 2.5 0 0 0
10 3.125 2.5 0 0 0
3.70075e-16 4.375 2.5 0 0 0
10 4.375 2.5 0 0 0
3.70075e-16 5.625 2.5 0 0 0
10 5.625 2.5 0 0 0
3.70075e-16 6.875 2.5 0 0 0
10 6.875 2.5 0 0 0
3.70075e-16 8.125 2.5 0 0 0
10 8.125 2.5 0 0 0
7.4015e-16 9.375 2.5 0 0 0
0.625 10 2.5 0 0 0
1.875 10 2.5 0 0 0
3.125 10 2.5 0 0 0
4.375 10 2.5 0 0 0
5.625 10 2.5 0 0 0
6.875 10 2.5 0 0 0
8.125 10 2.5 0 0 0
10 9.375 2.5 0 0 0
9.375 10 2.5 0 0 0
0.625 1.4803e-16 3.5 0 0 0
1.875 3.70074e-16 3.5 0 0 0
3.125 3.70074e-16 3.5 0 0 0
4.375 -1.4803e-16 3.5 0 0 0
5.625 -1.4803e-16 3.5 0 0 0
6.875 0 3.5 0 0 0
8.125 2.22045e-16 3.5 0 0 0
9.375 3.70074e-16 3.5 0 0 0
2.96059e-16 0.625 3.5 0 0 0
10 0.625 3.5 0 0 0
4.44089e-16 1.875 3.5 0 0 0
10 1.875 3.5 0 0 0
2.96059e-16 3.125 3.5 0 0 0
10 3.125 3.5 0 0 0
-7.40148e-17 4.375 3.5 0 0 0
10 4.375 3.5 0 0 0
-7.40148e-17 5.625 3.5 0 0 0
10 5.625 3.5 0 0 0
-7.40148e-17 6.875 3.5 0 0 0
10 6.875 3.5 0 0 0
7.40148e-17 8.125 3.5 0 0 0
10 8.125 3.5 0 0 0
2.96059e-16 9.375 3.5 0 0 0
0.625 10 3.5 0 0 0
1.875 10 3.5 0 0 0
3.125 10 3.5 0 0 0
4.375 10 3.5 0 0 0
5.625 10 3.5 0 0 0
6.875 10 3.5 0 0 0
8.125 10 3.5 0 0 0
10 9.375 3.5 0 0 0
9.375 10 3.5 0 0 0
0.625 7.40149e-16 4.5 0 0 0
1.875 8.88179e-16 4.5 0 0 0
3.125 9.62194e-16 4.5 0 0 0
4.375 6.66135e-16 4.5 0 0 0
5.625 6.66135e-16 4.5 0 0 0
6.875 7.40149e-16 4.5 0 0 0
8.125 4.44089e-16 4.5 0 0 0
9.375 5.18104e-16 4.5 0 0 0
6.66134e-16 0.625 4.5 0 0 0
10 0.625 4.5 0 0 0
6.66134e-16 1.875 4.5 0 0 0
10 1.875 4.5 0 0 0
6.66134e-16 3.125 4.5 0 0 0
10 3.125 4.5 0 0 0
5.9212e-16 4.375 4.5 0 0 0
10 4.375 4.5 0 0 0
5.9212e-16 5.625 4.5 0 0 0
10 5.625 4.5 0 0 0
5.9212e-16 6.875 4.5 0 0 0
10 6.875 4.5 0 0 0
6.66135e-16 8.125 4.5 0 0 0
10 8.125 4.5 0 0 0
7.40149e-16 9.375 4.5 0 0 0
0.625 10 4.5 0 0 0
1.875 10 4.5 0 0 0
3.125 10 4.5 0 0 0
4.375 10 4.5 0 0 0
5.625 10 4.5 0 0 0
6.875 10 4.5 0 0 0
8.125 10 4.5 0 0 0
10 9.375 4.5 0 0 0
9.375 10 4.5 0 0 0
0.625 7.40149e-16 5.5 0 0 0
1.875 8.14164e-16 5.5 0 0 0
3.125 1.40628e-15 5.5 0 0 0
4.375 1.40628e-15 5.5 0 0 0
5.625 1.40628e-15 5.5 0 0 0
6.875 1.33227e-15 5.5 0 0 0
8.125 5.18104e-16 5.5 0 0 0
9.375 5.18104e-16 5.5 0 0 0
1.11022e-15 0.625 5.5 0 0 0
10 0.625 5.5 0 0 0
1.03621e-15 1.875 5.5 0 0 0
10 1.875 5.5 0 0 0
1.33227e-15 3.125 5.5 0 0 0
10 3.125 5.5 0 0 0
1.25825e-15 4.375 5.5 0 0 0
10 4.375 5.5 0 0 0
1.18424e-15 5.625 5.5 0 0 0
10 5.625 5.5 0 0 0
1.25825e-15 6.875 5.5 0 0 0
10 6.875 5.5 0 0 0
1.33227e-15 8.125 5.5 0 0 0
10 8.125 5.5 0 0 0
1.4803e-15 9.375 5.5 0 0 0
0.625 10 5.5 0 0 0
1.875 10 5.5 0 0 0
3.125 10 5.5 0 0 0
4.375 10 5.5 0 0 0
5.625 10 5.5 0 0 0
6.875 10 5.5 0 0 0
8.125 10 5.5 0 0 0
10 9.375 5.5 0 0 0
9.375 10 5.5 0 0 0
0.625 2.96059e-16 6.5 0 0 0
1.875 2.96059e-16 6.5 0 0 0
3.125 1.25825e-15 6.5 0 0 0
4.375 1.18424e-15 6.5 0 0 0
5.625 1.18424e-15 6.5 0 0 0
6.875 1.25825e-15 6.5 0 0 0
8.125 5.18104e-16 6.5 0 0 0
9.375 5.18104e-16 6.5 0 0 0
8.14164e-16 0.625 6.5 0 0 0
10 0.625 6.5 0 0 0
8.14164e-16 1.875 6.5 0 0 0
10 1.875 6.5 0 0 0
1.11022e-15 3.125 6.5 0 0 0
10 3.125 6.5 0 0 0
8.14165e-16 4.375 6.5 0 0 0
10 4.375 6.5 0 0 0
7.4015e-16 5.625 6.5 0 0 0
10 5.625 6.5 0 0 0
9.62195e-16 6.875 6.5 0 0 0
10 6.875 6.5 0 0 0
8.14165e-16 8.125 6.5 0 0 0
10 8.125 6.5 0 0 0
9.62195e-16 9.375 6.5 0 0 0
0.625 10 6.5 0 0 0
1.875 10 6.5 0 0 0
3.125 10 6.5 0 0 0
4.375 10 6.5 0 0 0
5.625 10 6.5 0 0 0
6.875 10 6.5 0 0 0
8.125 10 6.5 0 0 0
10 9.375 6.5 0 0 0
9.375 10 6.5 0 0 0
0.625 5.18104e-16 7.5 0 0 0
1.875 2.22045e-16 7.5 0 0 0
3.125 5.9212e-16 7.5 0 0 0
4.375 7.4015e-16 7.5 0 0 0
5.625 7.4015e-16 7.5 0 0 0
6.875 6.66134e-16 7.5 0 0 0
8.125 4.44089e-16 7.5 0 0 0
9.375 6.66134e-16 7.5 0 0 0
5.92119e-16 0.625 7.5 0 0 0
10 0.625 7.5 0 0 0
6.66134e-16 1.875 7.5 0 0 0
10 1.875 7.5 0 0 0
6.66134e-16 3.125 7.5 0 0 0
10 3.125 7.5 0 0 0
4.4409e-16 4.375 7.5 0 0 0
10 4.375 7.5 0 0 0
5.18105e-16 5.625 7.5 0 0 0
10 5.625 7.5 0 0 0
4.44089e-16 6.875 7.5 0 0 0
10 6.875 7.5 0 0 0
2.96059e-16 8.125 7.5 0 0 0
10 8.125 7.5 0 0 0
5.18104e-16 9.375 7.5 0 0 0
0.625 10 7.5 0 0 0
1.875 10 7.5 0 0 0
3.125 10 7.5 0 0 0
4.375 10 7.5 0 0 0
5.625 10 7.5 0 0 0
6.875 10 7.5 0 0 0
8.125 10 7.5 0 0 0
10 9.375 7.5 0 0 0
9.375 10 7.5 0 0 0
0.625 1.4803e-16 8.5 0 0 0
1.875 7.4015e-17 8.5 0 0 0
3.125 0 8.5 0 0 0
4.375 0 8.5 0 0 0
5.625 0 8.5 0 0 0
6.875 1.4803e-16 8.5 0 0 0
8.125 5.18104e-16 8.5 0 0 0
9.375 4.44089e-16 8.5 0 0 0
2.22045e-16 0.625 8.5 0 0 0
10 0.625 8.5 0 0 0
2.9606e-16 1.875 8.5 0 0 0
10 1.875 8.5 0 0 0
3.70075e-16 3.125 8.5 0 0 0
10 3.125 8.5 0 0 0
1.4803e-16 4.375 8.5 0 0 0
10 4.375 8.5 0 0 0
2.22045e-16 5.625 8.5 0 0 0
10 5.625 8.5 0 0 0
2.96059e-16 6.875 8.5 0 0 0
10 6.875 8.5 0 0 0
4.44089e-16 8.125 8.5 0 0 0
10 8.125 8.5 0 0 0
4.44089e-16 9.375 8.5 0 0 0
0.625 10 8.5 0 0 0
1.875 10 8.5 0 0 0
3.125 10 8.5 0 0 0
4.375 10 8.5 0 0 0
5.625 10 8.5 0 0 0
6.875 10 8.5 0 0 0
8.125 10 8.5 0 0 0
10 9.375 8.5 0 0 0
9.375 10 8.5 0 0 0
0.625 4.4409e-16 9.5 0 0 0
1.875 4.4409e-16 9.5 0 0 0
3.125 2.22045e-16 9.5 0 0 0
4.375 -5e-22 9.5 0 0 0
5.625 -1.4803e-16 9.5 0 0 0
6.875 2.9606e-16 9.5 0 0 0
8.125 9.62194e-16 9.5 0 0 0
9.375 8.14165e-16 9.5 0 0 0
5.18105e-16 0.625 9.5 0 0 0
0.625 0.625 10 0 0 0
1.875 0.625 10 0 0 0
3.125 0.625 10 0 0 0
4.375 0.625 10 0 0 0
5.625 0.625 10 0 0 0
6.875 0.625 10 0 0 0
8.125 0.625 10 0 0 0
10 0.625 9.5 0 0 0
9.375 0.625 10 0 0 0
3.70075e-16 1.875 9.5 0 0 0
0.625 1.875 10 0 0 0
1.875 1.875 10 0 0 0
3.125 1.875 10 0 0 0
4.375 1.875 10 0 0 0
5.625 1.875 10 0 0 0
6.875 1.875 10 0 0 0
8.125 1.875 10 0 0 0
10 1.875 9.5 0 0 0
9.375 1.875 10 0 0 0
5.18105e-16 3.125 9.5 0 0 0
0.625 3.125 10 0 0 0
1.875 3.125 10 0 0 0
3.125 3.125 10 0 0 0
4.375 3.125 10 0 0 0
5.625 3.125 10 0 0 0
6.875 3.125 10 0 0 0
8.125 3.125 10 0 0 0
10 3.125 9.5 0 0 0
9.375 3.125 10 0 0 0
2.9606e-16 4.375 9.5 0 0 0
0.625 4.375 10 0 0 0
1.875 4.375 10 0 0 0
3.125 4.375 10 0 0 0
4.375 4.375 10 0 0 0
5.625 4.375 10 0 0 0
6.875 4.375 10 0 0 0
8.125 4.375 10 0 0 0
10 4.375 9.5 0 0 0
9.375 4.375 10 0 0 0
2.22045e-16 5.625 9.5 0 0 0
0.625 5.625 10 0 0 0
1.875 5.625 10 0 0 0
3.125 5.625 10 0 0 0
4.375 5.625 10 0 0 0
5.625 5.625 10 0 0 0
6.875 5.625 10 0 0 0
8.125 5.625 10 0 0 0
10 5.625 9.5 0 0 0
9.375 5.625 10 0 0 0
5.9212e-16 6.875 9.5 0 0 0
0.625 6.875 10 0 0 0
1.875 6.875 10 0 0 0
3.125 6.875 10 0 0 0
4.375 6.875 10 0 0 0
5.625 6.875 10 0 0 0
6.875 6.875 10 0 0 0
8.125 6.875 10 0 0 0
10 6.875 9.5 0 0 0
9.375 6.875 10 0 0 0
5.92119e-16 8.125 9.5 0 0 0
0.625 8.125 10 0 0 0
1.875 8.125 10 0 0 0
3.125 8.125 10 0 0 0
4.375 8.125 10 0 0 0
5.625 8.125 10 0 0 0
6.875 8.125 10 0 0 0
8.125 8.125 10 0 0 0
10 8.125 9.5 0 0 0
9.375 8.125 10 0 0 0
5.18104e-16 9.375 9.5 0 0 0
0.625 10 9.5 0 0 0
0.625 9.375 10 0 0 0
1.875 10 9.5 0 0 0
1.875 9.375 10 0 0 0
3.125 10 9.5 0 0 0
3.125 9.375 10 0 0 0
4.375 10 9.5 0 0 0
4.375 9.375 10 0 0 0
5.625 10 9.5 0 0 0
5.625 9.375 10 0 0 0
6.875 10 9.5 0 0 0
6.875 9.375 10 0 0 0
8.125 10 9.5 0 0 0
8.125 9.375 10 0 0 0
10 9.375 9.5 0 0 0
9.375 10 9.5 0 0 0
9.375 9.375 10 0 0 0
