# Probe 0 (-5 5 5)
# Probe 1 (-0.5 5 5)
# Probe 2 (10.5 5 5)
# Probe 3 (15 5 5)
# Probe 4 (5 15 5)
# Time        0             1             2             3             4            
100           37.0014       49.9896       -13.6452      -11.7618      -13.1284     
200           37.3942       50.4698       -11.4661      -10.8092      -12.2469     
300           37.4287       50.5029       -11.4091      -10.7738      -12.2009     
400           37.4292       50.5035       -11.4079      -10.7731      -12.2        
500           37.4292       50.5035       -11.4078      -10.7731      -12.2        
600           37.4292       50.5035       -11.4078      -10.7731      -12.2        
700           37.4292       50.5035       -11.4078      -10.7731      -12.2        
800           37.4292       50.5035       -11.4078      -10.7731      -12.2        
900           37.4292       50.5035       -11.4078      -10.7731      -12.2        
1000          37.4292       50.5035       -11.4078      -10.7731      -12.2        
