# Probe 0 (-5 5 5)
# Probe 1 (-0.5 5 5)
# Probe 2 (10.5 5 5)
# Probe 3 (15 5 5)
# Probe 4 (5 15 5)
# Time        0             1             2             3             4            
100           (5.83938 -0.28149 0.332538) (0.260861 -0.333767 -0.51847) (-0.0242663 -0.0373192 0.291731) (-0.0410816 0.0202352 0.247425) (9.87453 1.61406 -0.161046)
200           (5.84335 -0.27939 0.34296) (0.264288 -0.334105 -0.526284) (-0.02092 -0.0556788 0.400085) (-0.31077 -0.013559 0.307142) (9.85649 1.62895 -0.106578)
300           (5.84319 -0.279385 0.343068) (0.264251 -0.334034 -0.52616) (-0.0205098 -0.056176 0.403701) (-0.31568 -0.0142179 0.310507) (9.85484 1.63068 -0.106314)
400           (5.8432 -0.279379 0.343073) (0.264257 -0.334051 -0.526154) (-0.0205005 -0.0561591 0.403761) (-0.315775 -0.01421 0.310558) (9.85478 1.63071 -0.106294)
500           (5.8432 -0.279379 0.343073) (0.264257 -0.334052 -0.526154) (-0.0205002 -0.0561592 0.403763) (-0.315779 -0.0142114 0.310559) (9.85477 1.63071 -0.106288)
600           (5.8432 -0.279379 0.343074) (0.264257 -0.334052 -0.526154) (-0.0205002 -0.0561592 0.403764) (-0.315779 -0.0142113 0.310559) (9.85477 1.63072 -0.106287)
700           (5.8432 -0.279379 0.343074) (0.264257 -0.334052 -0.526154) (-0.0205002 -0.0561591 0.403764) (-0.315779 -0.0142112 0.310559) (9.85476 1.63072 -0.106286)
800           (5.8432 -0.279379 0.343074) (0.264257 -0.334052 -0.526154) (-0.0205002 -0.0561591 0.403764) (-0.315779 -0.0142112 0.310559) (9.85476 1.63072 -0.106286)
900           (5.8432 -0.279379 0.343074) (0.264257 -0.334052 -0.526154) (-0.0205002 -0.0561591 0.403764) (-0.315779 -0.0142112 0.310559) (9.85476 1.63072 -0.106286)
1000          (5.8432 -0.279379 0.343074) (0.264257 -0.334052 -0.526154) (-0.0205002 -0.0561591 0.403764) (-0.315779 -0.0142112 0.310559) (9.85476 1.63072 -0.106286)
