/*--------------------------------*- C++ -*----------------------------------*\
| =========                 |                                                 |
| \\      /  F ield         | OpenFOAM: The Open Source CFD Toolbox           |
|  \\    /   O peration     | Version:  2412                                  |
|   \\  /    A nd           | Website:  www.openfoam.com                      |
|    \\/     M anipulation  |                                                 |
\*---------------------------------------------------------------------------*/
FoamFile
{
    version     2.0;
    format      ascii;
    arch        "LSB;label=32;scalar=64";
    class       volScalarField;
    location    "1000";
    object      epsilon;
}
// * * * * * * * * * * * * * * * * * * * * * * * * * * * * * * * * * * * * * //

dimensions      [0 2 -3 0 0 0 0];

internalField   nonuniform List<scalar> 
47360
(
1.47739
1.17825
0.983493
0.852379
0.76041
0.693878
0.644149
0.606151
0.576253
0.552445
0.532859
0.517277
0.504764
0.494397
0.485842
0.47841
0.472133
0.466353
0.461374
0.456463
0.452175
0.447636
0.44366
0.439176
0.435296
0.43068
0.426796
0.421947
0.418045
0.412916
0.409044
0.403623
0.399863
0.394177
0.390612
0.384725
0.381411
0.375401
0.372376
0.365038
1.47741
1.17823
0.983537
0.852346
0.760293
0.693772
0.64398
0.605978
0.576045
0.552196
0.532639
0.517187
0.504686
0.494442
0.485899
0.478591
0.472332
0.46667
0.461709
0.456896
0.45262
0.448139
0.44416
0.439687
0.435792
0.431134
0.427223
0.422285
0.418345
0.413095
0.40917
0.40362
0.399792
0.393971
0.390327
0.384302
0.380911
0.374767
0.371673
0.364186
1.47743
1.1782
0.983516
0.852276
0.760152
0.693563
0.643726
0.605619
0.575705
0.551693
0.532263
0.516985
0.504594
0.494515
0.486095
0.478956
0.472837
0.46734
0.462521
0.457844
0.453681
0.44928
0.445371
0.440899
0.437013
0.432275
0.428317
0.423226
0.419198
0.413738
0.409696
0.403896
0.399928
0.393843
0.39005
0.383757
0.380223
0.373811
0.370577
0.362789
1.47744
1.17818
0.98349
0.852135
0.759942
0.693221
0.643344
0.605056
0.575182
0.550892
0.5317
0.516658
0.504474
0.494624
0.486437
0.479548
0.473705
0.468472
0.463946
0.459503
0.455597
0.451353
0.447622
0.443204
0.439403
0.434608
0.430642
0.425383
0.421258
0.415533
0.411327
0.405193
0.401021
0.394562
0.390546
0.383864
0.38011
0.373315
0.369889
0.361665
1.47745
1.17817
0.98343
0.851954
0.759624
0.692792
0.64272
0.604389
0.574234
0.550051
0.531119
0.516323
0.504403
0.494846
0.486995
0.480488
0.475075
0.470296
0.46626
0.46227
0.458832
0.454958
0.451606
0.447423
0.443878
0.439161
0.435318
0.429989
0.425864
0.419938
0.415626
0.40918
0.404821
0.397969
0.393718
0.386594
0.382592
0.375333
0.371676
0.362897
1.47744
1.17818
0.983307
0.851732
0.759177
0.692229
0.64185
0.603508
0.572891
0.548991
0.530375
0.515859
0.50429
0.495138
0.487771
0.481869
0.477121
0.473144
0.469925
0.466837
0.464231
0.461252
0.458694
0.455348
0.452541
0.448532
0.445326
0.440494
0.43684
0.431153
0.427096
0.420632
0.416314
0.409234
0.404861
0.397361
0.393141
0.385424
0.38152
0.372152
1.47741
1.1782
0.983149
0.851459
0.758582
0.691471
0.640734
0.602252
0.57125
0.547706
0.529405
0.515247
0.504112
0.495519
0.488855
0.483878
0.480213
0.477649
0.475942
0.474553
0.473746
0.473016
0.472694
0.472266
0.471908
0.471116
0.47021
0.468243
0.466467
0.462764
0.460018
0.454497
0.45091
0.444007
0.439811
0.432003
0.427598
0.419294
0.415034
0.404774
1.47755
1.17805
0.983159
0.850895
0.757971
0.690277
0.639473
0.600344
0.569478
0.546333
0.528161
0.514514
0.503787
0.496063
0.490312
0.486884
0.485197
0.485427
0.486483
0.488845
0.493687
0.499876
0.50849
0.517227
0.527112
0.535346
0.543442
0.548503
0.552781
0.553437
0.552605
0.549943
0.546571
0.539444
0.534629
0.524976
0.519366
0.508576
0.502969
0.489508
1.47803
1.17741
0.983651
0.84962
0.757666
0.688272
0.638198
0.597703
0.567342
0.544416
0.526468
0.51342
0.503235
0.496707
0.492291
0.49246
0.494256
0.49873
0.508214
0.525145
0.551311
0.583758
0.620787
0.6578
0.692893
0.722557
0.747008
0.763824
0.775283
0.779053
0.777786
0.773118
0.766636
0.753362
0.743902
0.727
0.716754
0.698611
0.689327
0.667503
1.47839
1.17689
0.983978
0.848203
0.757434
0.685775
0.636555
0.594864
0.565575
0.541867
0.524602
0.511823
0.502512
0.497093
0.497786
0.501473
0.511333
0.532711
0.57913
0.654491
0.754049
0.858697
0.963033
1.05394
1.1305
1.18792
1.22833
1.2526
1.26012
1.257
1.24804
1.22813
1.20862
1.17798
1.15549
1.12122
1.10008
1.06509
1.04743
1.00632
1.47791
1.17752
0.982946
0.848047
0.75555
0.683995
0.63389
0.591437
0.563006
0.538259
0.522014
0.509496
0.501208
0.501543
0.506176
0.521727
0.564108
0.662309
0.867399
1.12155
1.38967
1.62884
1.83759
1.98978
2.10793
2.17794
2.22733
2.22697
2.21474
2.18212
2.13163
2.06653
2.00495
1.92978
1.86995
1.79283
1.74231
1.66558
1.62691
1.53877
1.47689
1.17899
0.980728
0.849002
0.751579
0.683321
0.629419
0.588252
0.558912
0.534012
0.518948
0.505666
0.502472
0.506365
0.52547
0.590641
0.782408
1.24568
1.87327
2.48285
3.005
3.40194
3.70409
3.86406
3.99744
4.0489
4.02198
3.94301
3.79113
3.60843
3.41757
3.22809
3.056
2.88571
2.74416
2.59287
2.48591
2.34434
2.27342
2.118
1.47627
1.17947
0.979279
0.848613
0.748794
0.681212
0.62531
0.58521
0.553407
0.530081
0.514401
0.502316
0.503888
0.519021
0.595723
0.872824
1.77194
3.23745
4.54869
5.57356
6.30121
6.80062
6.99131
6.9373
6.72152
6.2956
5.81092
5.34385
4.93042
4.56569
4.24991
3.96796
3.72419
3.50122
3.31274
3.12798
2.98675
2.81709
2.72635
2.53875
1.47605
1.17911
0.978645
0.84708
0.746389
0.678396
0.619911
0.581697
0.546781
0.526718
0.506922
0.49992
0.507603
0.55949
0.874472
1.99407
5.18317
8.04147
9.9591
10.7173
10.6423
10.2662
9.55109
8.79135
7.78354
6.7852
5.94972
5.288
4.8039
4.45118
4.18308
3.95978
3.76919
3.59931
3.44528
3.29239
3.15987
3.01385
2.91882
2.75717
1.47641
1.1787
0.978618
0.845349
0.744694
0.674984
0.61488
0.577682
0.539921
0.522072
0.497726
0.498659
0.519085
0.693373
1.89007
5.90647
12.755
14.4892
14.132
13.2928
12.0603
10.7096
9.3435
8.05828
6.30842
5.04543
4.31842
3.96876
3.81047
3.73684
3.68292
3.61417
3.5274
3.42688
3.32373
3.2147
3.11075
3.00279
2.91309
2.83099
1.47801
1.177
0.980243
0.841954
0.744657
0.669848
0.612391
0.570659
0.53613
0.512884
0.49183
0.495972
0.546625
1.0854
4.68974
11.7198
17.5507
16.5698
13.6048
11.5052
10.0613
8.86274
7.67262
6.20106
3.55273
2.76694
2.64233
2.73992
2.88844
3.03616
3.14021
3.18479
3.19139
3.16671
3.11677
3.05136
2.98372
2.91292
2.85311
2.847
1.4784
1.17672
0.980077
0.840565
0.742964
0.666261
0.609293
0.565286
0.531123
0.504692
0.48617
0.493142
0.60286
1.66145
6.71067
13.9507
1.73419
1.62539
1.86718
2.19083
2.46935
2.68741
2.83863
2.91546
2.94398
2.94041
2.91544
2.87963
2.84478
2.80587
2.80357
2.85491
1.47791
1.17736
0.978735
0.840475
0.740374
0.663876
0.605793
0.561267
0.525858
0.498638
0.480324
0.490191
0.661944
1.97764
7.18655
11.7026
1.23311
1.28333
1.60109
1.9476
2.24509
2.48722
2.65868
2.76495
2.81571
2.8308
2.82027
2.78962
2.75567
2.73951
2.77049
2.87019
1.4784
1.17687
0.978687
0.839521
0.739174
0.661981
0.603618
0.558178
0.52222
0.494172
0.47557
0.487886
0.708877
2.23111
7.26873
9.89875
1.06299
1.17704
1.50668
1.84007
2.12865
2.38062
2.5553
2.67805
2.74434
2.77067
2.77406
2.75576
2.72805
2.71202
2.76334
2.88662
1.47879
1.17704
0.97799
0.839317
0.738521
0.660908
0.602639
0.556715
0.520432
0.491967
0.473429
0.485819
0.724405
2.27379
7.11787
9.13771
1.00436
1.14649
1.47763
1.80063
2.08041
2.33771
2.5106
2.6396
2.71322
2.74601
2.75369
2.74308
2.72148
2.70839
2.76587
2.8963
1.47879
1.17704
0.97799
0.839317
0.738522
0.660908
0.602641
0.556714
0.520425
0.491999
0.47338
0.485959
0.724228
2.27389
7.11781
9.1377
1.00435
1.14648
1.47762
1.80062
2.08039
2.33769
2.51057
2.63957
2.71319
2.74598
2.75365
2.74304
2.72145
2.70835
2.76583
2.89626
1.4784
1.17687
0.978684
0.83952
0.739174
0.661982
0.603618
0.558178
0.52223
0.494144
0.475607
0.487799
0.709115
2.23088
7.2687
9.89875
1.06297
1.17703
1.50665
1.84003
2.12859
2.38055
2.55522
2.67796
2.74424
2.77057
2.77395
2.75565
2.72794
2.71191
2.76323
2.88651
1.47791
1.17736
0.978734
0.840474
0.740373
0.663876
0.605793
0.561264
0.525863
0.498651
0.480275
0.490264
0.661832
1.97739
7.18663
11.7026
1.23306
1.28328
1.60103
1.94751
2.24497
2.48709
2.65853
2.76478
2.81552
2.83061
2.82008
2.78942
2.75546
2.73929
2.77028
2.86998
1.4784
1.17672
0.980077
0.840565
0.742963
0.666261
0.609292
0.565284
0.531126
0.504715
0.486103
0.493351
0.602284
1.66349
6.70903
13.9506
1.73401
1.62525
1.86705
2.19067
2.46915
2.68718
2.83838
2.91519
2.94369
2.94011
2.91512
2.8793
2.84445
2.80555
2.80325
2.85459
1.47801
1.177
0.980242
0.841955
0.744654
0.669849
0.612388
0.570659
0.536133
0.512885
0.491811
0.49601
0.546594
1.08458
4.68947
11.7195
17.5506
16.57
13.6046
11.5046
10.0605
8.86183
7.67165
6.20009
3.55209
2.76648
2.64195
2.73956
2.88807
3.03578
3.13981
3.18438
3.19096
3.16627
3.11632
3.05091
2.98326
2.91248
2.85267
2.84657
1.47641
1.1787
0.978618
0.845348
0.744694
0.674982
0.614881
0.577678
0.539926
0.522059
0.497723
0.498687
0.519127
0.69323
1.8901
5.90571
12.7542
14.4888
14.1314
13.2921
12.0594
10.7086
9.34247
8.05738
6.30754
5.04466
4.31777
3.96819
3.80996
3.73632
3.68241
3.61365
3.52688
3.42634
3.32318
3.21415
3.11021
3.00225
2.91255
2.83046
1.47605
1.17911
0.978642
0.847083
0.746385
0.6784
0.619909
0.5817
0.546778
0.526721
0.50691
0.499948
0.507598
0.559594
0.874377
1.99406
5.18256
8.04069
9.9585
10.7168
10.6418
10.2657
9.55057
8.79082
7.78296
6.78474
5.9493
5.28748
4.80336
4.45064
4.18254
3.95924
3.76863
3.59875
3.4447
3.2918
3.15928
3.01325
2.91822
2.75657
1.47627
1.17948
0.979273
0.848619
0.748787
0.681217
0.625305
0.585216
0.553399
0.530089
0.514391
0.502328
0.503871
0.519141
0.595468
0.873144
1.77131
3.23665
4.54773
5.57271
6.30044
6.79999
6.99079
6.93681
6.72106
6.29517
5.8105
5.34343
4.92998
4.56523
4.24942
3.96743
3.72363
3.50063
3.31213
3.12734
2.98611
2.81643
2.72569
2.53809
1.47688
1.17899
0.980726
0.849004
0.751576
0.683322
0.629418
0.588251
0.558913
0.534006
0.518957
0.505651
0.50249
0.506438
0.525244
0.591052
0.781556
1.24536
1.87243
2.48181
3.00388
3.40078
3.70295
3.86293
3.99638
4.04795
4.02107
3.94217
3.79035
3.60767
3.41684
3.22737
3.05528
2.88498
2.74343
2.59212
2.48516
2.34358
2.27267
2.11724
1.47791
1.17752
0.982946
0.848047
0.755549
0.683994
0.63389
0.591435
0.563007
0.538255
0.522019
0.509489
0.501214
0.501563
0.506098
0.522004
0.563685
0.662333
0.867052
1.12093
1.3888
1.62784
1.83649
1.9886
2.10672
2.17671
2.22612
2.22576
2.21355
2.18097
2.13051
2.06544
2.0039
1.92875
1.86896
1.79186
1.74136
1.66465
1.62599
1.53788
1.47839
1.17689
0.983979
0.848202
0.757436
0.685772
0.636558
0.594859
0.56558
0.541861
0.524608
0.511817
0.502517
0.497096
0.497768
0.501591
0.511034
0.5333
0.578943
0.65439
0.753829
0.858325
0.962525
1.0533
1.12976
1.1871
1.22745
1.25166
1.25916
1.25603
1.24707
1.22716
1.20766
1.17702
1.15454
1.12028
1.09915
1.06417
1.04652
1.00543
1.47803
1.17741
0.983653
0.849618
0.757668
0.688269
0.6382
0.597699
0.567344
0.544412
0.52647
0.513419
0.503235
0.496708
0.492291
0.492478
0.494192
0.498908
0.508206
0.525165
0.551302
0.5837
0.620662
0.657609
0.692631
0.722231
0.746626
0.763384
0.774811
0.778524
0.777244
0.772548
0.766054
0.752761
0.743289
0.726377
0.716124
0.697975
0.688688
0.66686
1.47755
1.17804
0.98316
0.850894
0.757972
0.690275
0.639474
0.600342
0.569477
0.546332
0.52816
0.514515
0.503786
0.496064
0.490313
0.486886
0.485194
0.485447
0.486465
0.488908
0.493695
0.49988
0.508482
0.517192
0.527058
0.535253
0.543333
0.54835
0.552618
0.553228
0.552385
0.549698
0.546313
0.539162
0.534337
0.524665
0.519045
0.508239
0.502624
0.489147
1.47741
1.1782
0.98315
0.851458
0.758583
0.69147
0.640734
0.602251
0.571249
0.547707
0.529404
0.515247
0.504111
0.49552
0.488855
0.483879
0.480214
0.477652
0.475942
0.474557
0.473752
0.473019
0.472696
0.47226
0.471897
0.471093
0.47018
0.468197
0.466413
0.462693
0.459938
0.454401
0.450805
0.443887
0.439682
0.43186
0.427448
0.41913
0.414863
0.404587
1.47744
1.17818
0.983308
0.851732
0.759177
0.692229
0.641849
0.603508
0.57289
0.548991
0.530374
0.515859
0.50429
0.495138
0.487771
0.481869
0.477122
0.473144
0.469925
0.466836
0.464231
0.461251
0.458693
0.455344
0.452536
0.448521
0.445313
0.440475
0.436818
0.431123
0.427062
0.420589
0.416266
0.409178
0.404799
0.397291
0.393066
0.385339
0.381431
0.372051
1.47745
1.17817
0.98343
0.851954
0.759624
0.692792
0.64272
0.604389
0.574234
0.55005
0.531119
0.516323
0.504403
0.494846
0.486995
0.480488
0.475076
0.470296
0.46626
0.462269
0.458831
0.454956
0.451604
0.447418
0.443873
0.439154
0.435309
0.429977
0.42585
0.419921
0.415606
0.409156
0.404794
0.397937
0.393685
0.386555
0.38255
0.375285
0.371626
0.362839
1.47744
1.17818
0.98349
0.852135
0.759942
0.693221
0.643344
0.605056
0.575182
0.550891
0.531699
0.516658
0.504475
0.494624
0.486438
0.479548
0.473705
0.468472
0.463946
0.459502
0.455596
0.451351
0.44762
0.443201
0.439399
0.434601
0.430635
0.425374
0.421248
0.415521
0.411314
0.405177
0.401003
0.394542
0.390524
0.383839
0.380083
0.373285
0.369857
0.361629
1.47743
1.1782
0.983516
0.852276
0.760152
0.693562
0.643726
0.605619
0.575705
0.551692
0.532263
0.516985
0.504594
0.494515
0.486095
0.478956
0.472837
0.46734
0.462521
0.457843
0.45368
0.449278
0.445369
0.440896
0.43701
0.43227
0.428312
0.42322
0.41919
0.413729
0.409686
0.403884
0.399916
0.393829
0.390035
0.38374
0.380205
0.373791
0.370557
0.362765
1.47741
1.17823
0.983537
0.852346
0.760293
0.693772
0.64398
0.605978
0.576045
0.552196
0.532639
0.517187
0.504686
0.494442
0.4859
0.478591
0.472332
0.466669
0.461709
0.456896
0.452619
0.448137
0.444159
0.439685
0.435789
0.43113
0.427218
0.422279
0.418339
0.413088
0.409163
0.403611
0.399783
0.39396
0.390316
0.384289
0.380897
0.374753
0.371659
0.364169
1.47739
1.17825
0.983493
0.852379
0.76041
0.693878
0.644149
0.606151
0.576253
0.552444
0.532859
0.517277
0.504764
0.494397
0.485842
0.478411
0.472133
0.466353
0.461373
0.456463
0.452174
0.447634
0.443658
0.439174
0.435294
0.430677
0.426793
0.421942
0.41804
0.41291
0.409038
0.403616
0.399855
0.394168
0.390603
0.384714
0.3814
0.375389
0.372363
0.365024
0.573442
0.572481
0.566805
0.554539
0.538174
0.520569
0.502453
0.484654
0.467299
0.450808
0.435072
0.420362
0.4065
0.393579
0.381424
0.370054
0.359327
0.349206
0.339617
0.330482
0.321813
0.313487
0.305611
0.297999
0.290851
0.283898
0.277444
0.271103
0.265319
0.259533
0.254406
0.249088
0.244631
0.2397
0.235886
0.231227
0.228118
0.223571
0.221306
0.216104
0.573443
0.572496
0.566808
0.554584
0.538181
0.520696
0.502525
0.484861
0.467442
0.451092
0.435292
0.420743
0.406816
0.394064
0.381846
0.370646
0.359852
0.349892
0.340223
0.331228
0.322464
0.314252
0.306268
0.29874
0.291481
0.284579
0.278021
0.271693
0.265821
0.260013
0.254818
0.249467
0.24492
0.239947
0.236066
0.231351
0.228195
0.223588
0.221283
0.21603
0.57346
0.572534
0.566869
0.554738
0.538295
0.520949
0.502741
0.485237
0.467789
0.451611
0.435804
0.421462
0.407545
0.395012
0.38282
0.371841
0.36107
0.351313
0.341641
0.332807
0.323999
0.315903
0.307833
0.300375
0.292993
0.28612
0.279408
0.273077
0.267033
0.261194
0.255818
0.250408
0.245705
0.240639
0.236634
0.231804
0.228555
0.223823
0.221433
0.216075
0.573488
0.572593
0.566972
0.554954
0.538512
0.521321
0.503121
0.485799
0.468377
0.452408
0.436668
0.422592
0.40878
0.39654
0.384493
0.373815
0.363202
0.353717
0.344167
0.335536
0.326783
0.318809
0.310721
0.303311
0.295842
0.288954
0.282101
0.275702
0.269471
0.26352
0.25793
0.252374
0.247458
0.242219
0.238027
0.233002
0.229605
0.224668
0.222163
0.216591
0.573527
0.572673
0.567113
0.555224
0.538842
0.52181
0.503681
0.486572
0.469237
0.453549
0.437965
0.424249
0.410655
0.398846
0.387093
0.376888
0.366608
0.35757
0.348309
0.340018
0.331456
0.323692
0.315683
0.308363
0.300872
0.293961
0.286996
0.280489
0.274082
0.267955
0.262144
0.256359
0.251199
0.245694
0.241261
0.235946
0.232336
0.22709
0.224433
0.21849
0.573584
0.572772
0.567294
0.55552
0.539333
0.52238
0.504485
0.487528
0.470458
0.455051
0.439821
0.426538
0.413382
0.402186
0.390989
0.381534
0.371887
0.36362
0.354929
0.347263
0.339131
0.331813
0.324083
0.317051
0.309723
0.302959
0.296036
0.289516
0.283021
0.27673
0.270721
0.264656
0.259228
0.253359
0.248623
0.242885
0.23898
0.233273
0.230371
0.223864
0.573652
0.572885
0.567506
0.555857
0.539949
0.523041
0.50554
0.488678
0.472134
0.456952
0.442435
0.42959
0.417324
0.406906
0.396805
0.388472
0.380074
0.373092
0.365545
0.35904
0.35188
0.34564
0.338811
0.332771
0.326221
0.320299
0.313963
0.308005
0.301783
0.295642
0.289568
0.283246
0.277463
0.271058
0.265815
0.259382
0.254957
0.248474
0.245156
0.237739
0.573693
0.573005
0.567722
0.556375
0.540462
0.523981
0.506654
0.490241
0.474173
0.459525
0.445895
0.433743
0.422904
0.413591
0.405484
0.398874
0.392926
0.388073
0.383027
0.378861
0.374468
0.371172
0.367625
0.364922
0.361566
0.358315
0.354214
0.349919
0.344728
0.339351
0.333396
0.327102
0.320953
0.314097
0.308241
0.301117
0.296048
0.288739
0.284968
0.276611
0.573688
0.573131
0.567935
0.557128
0.540804
0.525339
0.507728
0.492494
0.476434
0.463217
0.450148
0.439701
0.43047
0.423376
0.418293
0.415041
0.413178
0.413001
0.413861
0.416324
0.421303
0.42807
0.434789
0.441569
0.447217
0.451555
0.454534
0.454667
0.453687
0.451217
0.446529
0.440606
0.434085
0.426215
0.419115
0.410262
0.403792
0.394433
0.389434
0.378298
0.573711
0.573271
0.568196
0.557823
0.541496
0.52674
0.509327
0.495088
0.479546
0.467889
0.45578
0.44791
0.440871
0.437759
0.438035
0.440449
0.446439
0.458331
0.478962
0.507617
0.540973
0.577025
0.61186
0.645144
0.673748
0.697832
0.715837
0.727813
0.733726
0.733178
0.730148
0.72312
0.713525
0.700662
0.688762
0.672828
0.660922
0.643048
0.633087
0.61049
0.573822
0.573424
0.568539
0.558429
0.542589
0.5281
0.511706
0.497708
0.484136
0.473014
0.463963
0.457944
0.456626
0.459187
0.465309
0.48118
0.512569
0.573987
0.661361
0.766084
0.878725
0.989064
1.09319
1.18743
1.26492
1.32916
1.37204
1.39804
1.40054
1.39315
1.37469
1.34415
1.30975
1.269
1.2311
1.18613
1.15119
1.10285
1.07546
1.01527
0.57395
0.573604
0.568938
0.559411
0.543155
0.530522
0.513589
0.50187
0.488794
0.480025
0.473372
0.473172
0.476847
0.4869
0.510209
0.570382
0.700036
0.923881
1.20414
1.51205
1.81128
2.08422
2.32592
2.51685
2.64481
2.73156
2.73138
2.70251
2.63036
2.52284
2.40583
2.28524
2.16902
2.05454
1.95163
1.84643
1.76188
1.65969
1.60109
1.47976
0.57421
0.573792
0.569427
0.559674
0.544713
0.532514
0.515535
0.50707
0.493189
0.488897
0.486952
0.491004
0.503057
0.530335
0.614199
0.821233
1.29134
1.98517
2.75747
3.50876
4.11287
4.58836
4.9038
4.99181
4.93764
4.77553
4.46593
4.12825
3.81015
3.52065
3.2638
3.0363
2.83615
2.65498
2.49577
2.34404
2.21723
2.07761
1.98995
1.82564
0.574623
0.573912
0.569966
0.558339
0.548809
0.532116
0.521059
0.510291
0.500172
0.500199
0.501927
0.514048
0.540465
0.616692
0.896077
1.53131
3.10382
4.9779
6.69505
7.84809
8.18458
8.04067
7.6471
7.10603
6.48002
5.78051
5.1059
4.52948
4.07129
3.71655
3.43718
3.2068
3.0093
2.83225
2.67305
2.52134
2.38736
2.24612
2.1443
1.97865
0.574614
0.573943
0.570142
0.558545
0.550183
0.532454
0.52596
0.512067
0.510218
0.510984
0.51882
0.54233
0.59708
0.807576
1.59274
3.41043
8.42889
11.8363
12.2051
11.6017
10.4472
9.27862
8.18971
7.2343
6.06627
5.01031
4.23461
3.74284
3.4421
3.24406
3.09291
2.95744
2.82704
2.69702
2.57102
2.44545
2.3291
2.20635
2.10834
1.96779
0.574196
0.573955
0.570037
0.560094
0.549996
0.535271
0.527666
0.517196
0.517803
0.521546
0.537496
0.574101
0.677661
1.16184
3.1496
7.44651
17.3778
16.7045
13.6772
11.1941
9.42834
8.10329
7.01642
5.97624
4.02309
3.09565
2.6941
2.56912
2.54541
2.54813
2.54211
2.51451
2.46397
2.3981
2.32147
2.23633
2.15117
2.05724
1.97716
1.87223
0.574081
0.573986
0.570077
0.561207
0.549632
0.538079
0.529045
0.522989
0.524474
0.531939
0.553436
0.603569
0.747259
1.49598
4.3873
10.5217
1.93893
1.67618
1.66718
1.78834
1.91658
2.02147
2.08968
2.11871
2.11625
2.09234
2.05136
1.99922
1.94231
1.87511
1.81975
1.74584
0.574212
0.574031
0.570243
0.56106
0.550811
0.539075
0.531508
0.527146
0.530082
0.540536
0.566515
0.62221
0.785894
1.60249
4.52892
8.51804
1.20332
1.16208
1.25574
1.41111
1.56021
1.68757
1.78122
1.8368
1.86004
1.86106
1.84396
1.81303
1.77387
1.72645
1.68932
1.63719
0.574108
0.574077
0.570208
0.56139
0.550964
0.540286
0.532807
0.530163
0.534261
0.545846
0.576603
0.634098
0.817658
1.65004
4.28292
6.57943
0.95841
1.01111
1.11447
1.24595
1.37857
1.50288
1.59953
1.66616
1.70206
1.71504
1.71178
1.69387
1.66546
1.62839
1.60085
1.56129
0.57389
0.574101
0.570171
0.561866
0.550719
0.5413
0.533052
0.53189
0.535772
0.549115
0.578278
0.639586
0.818553
1.65675
4.152
5.73189
0.88115
0.972894
1.07149
1.18387
1.30311
1.42294
1.51728
1.58733
1.62833
1.64634
1.64857
1.63654
1.61297
1.58051
1.5573
1.52324
0.57389
0.574103
0.570173
0.56187
0.550723
0.541305
0.533056
0.531895
0.535884
0.548623
0.579212
0.638015
0.81972
1.65625
4.15211
5.73191
0.881142
0.97289
1.07149
1.18386
1.3031
1.42292
1.51726
1.58731
1.62831
1.64631
1.64855
1.63652
1.61295
1.58049
1.55728
1.52322
0.574109
0.574079
0.570209
0.561394
0.550969
0.54029
0.532812
0.530167
0.53415
0.546221
0.576188
0.635204
0.816711
1.65051
4.28281
6.57944
0.958384
1.01109
1.11445
1.24592
1.37852
1.50282
1.59946
1.66609
1.70199
1.71496
1.71171
1.6938
1.66539
1.62833
1.60078
1.56122
0.574213
0.574031
0.570243
0.561061
0.550812
0.539077
0.531509
0.527151
0.530161
0.540178
0.567407
0.620751
0.786684
1.60311
4.52902
8.51811
1.20325
1.16203
1.25568
1.41104
1.56012
1.68747
1.78111
1.83668
1.85992
1.86094
1.84384
1.81291
1.77375
1.72633
1.68921
1.63708
0.574081
0.573987
0.570077
0.561207
0.549633
0.538079
0.529046
0.52299
0.524523
0.5316
0.55474
0.600001
0.753374
1.48873
4.38973
10.521
1.9387
1.676
1.66702
1.78818
1.91642
2.0213
2.08951
2.11853
2.11607
2.09216
2.05118
1.99905
1.94213
1.87494
1.81959
1.74569
0.574196
0.573955
0.570037
0.560094
0.549997
0.535271
0.527667
0.517196
0.51781
0.52148
0.537754
0.573507
0.677633
1.1628
3.14931
7.44644
17.3782
16.705
13.6771
11.1936
9.42758
8.10244
7.01557
5.97544
4.02251
3.09521
2.69375
2.56885
2.54518
2.54792
2.54191
2.5143
2.46377
2.39789
2.32125
2.23612
2.15096
2.05703
1.97696
1.87203
0.574614
0.573943
0.570143
0.558546
0.550184
0.532455
0.52596
0.512068
0.510217
0.510983
0.518847
0.542299
0.596772
0.808282
1.59183
3.41162
8.42837
11.8364
12.2053
11.6018
10.4471
9.27836
8.18937
7.23393
6.0659
5.00998
4.23432
3.7426
3.4419
3.24388
3.09274
2.95727
2.82686
2.69683
2.57083
2.44525
2.3289
2.20614
2.10813
1.96758
0.574624
0.573912
0.569966
0.558339
0.54881
0.532117
0.521059
0.510292
0.500172
0.500198
0.501947
0.5138
0.54105
0.615997
0.896833
1.53037
3.10408
4.97812
6.69549
7.84862
8.18507
8.0411
7.64743
7.10627
6.48022
5.78067
5.106
4.52951
4.07128
3.7165
3.43711
3.20671
3.00918
2.83211
2.67289
2.52116
2.38718
2.24592
2.1441
1.97844
0.57421
0.573793
0.569427
0.559674
0.544713
0.532515
0.515535
0.507073
0.493187
0.488899
0.486952
0.490845
0.503769
0.528691
0.617472
0.817943
1.29384
1.98592
2.75788
3.50911
4.11323
4.58878
4.90426
4.99224
4.93804
4.77587
4.4662
4.12845
3.81029
3.52073
3.26382
3.03628
2.83609
2.65488
2.49563
2.34387
2.21704
2.0774
1.98974
1.8254
0.57395
0.573604
0.568939
0.559413
0.543153
0.530526
0.513586
0.501874
0.488792
0.480029
0.473373
0.473157
0.477094
0.485888
0.513619
0.568477
0.702879
0.925074
1.20475
1.51236
1.81138
2.0842
2.32584
2.51676
2.64471
2.73149
2.73129
2.70242
2.63025
2.52272
2.40568
2.28507
2.16882
2.05432
1.95139
1.84617
1.76161
1.6594
1.60079
1.47945
0.573822
0.573424
0.568539
0.558431
0.542586
0.528103
0.511704
0.497711
0.484135
0.473017
0.463963
0.457943
0.456645
0.458897
0.466473
0.48133
0.513474
0.574652
0.661823
0.766354
0.878801
0.988989
1.093
1.18714
1.26456
1.32875
1.37159
1.39757
1.40006
1.39267
1.37421
1.34367
1.30928
1.26853
1.23063
1.18567
1.15074
1.1024
1.07501
1.01482
0.573711
0.573271
0.568196
0.557825
0.541495
0.526742
0.509326
0.49509
0.479547
0.467891
0.455781
0.447913
0.44087
0.437743
0.438153
0.440441
0.446755
0.458625
0.479214
0.50781
0.541079
0.577037
0.611774
0.644966
0.673488
0.697501
0.715449
0.72738
0.733256
0.732698
0.729656
0.722612
0.71301
0.700145
0.688246
0.672313
0.660409
0.64254
0.632582
0.609995
0.573688
0.573131
0.567935
0.557129
0.540803
0.52534
0.507728
0.492495
0.476434
0.463219
0.450149
0.439705
0.430472
0.423382
0.418302
0.415058
0.413223
0.41309
0.413944
0.416418
0.421371
0.428111
0.43479
0.441524
0.447129
0.451415
0.454364
0.454438
0.453441
0.450939
0.446231
0.440287
0.433751
0.425867
0.418758
0.409896
0.403421
0.394058
0.389059
0.377922
0.573693
0.573005
0.567722
0.556375
0.540462
0.523982
0.506654
0.490242
0.474173
0.459527
0.445897
0.433747
0.422907
0.413598
0.405491
0.398886
0.392942
0.3881
0.38306
0.378901
0.374508
0.371208
0.367651
0.364932
0.36156
0.358286
0.354167
0.349849
0.34464
0.339244
0.333273
0.326963
0.320802
0.313933
0.308067
0.300932
0.295857
0.288538
0.284763
0.276397
0.573652
0.572885
0.567506
0.555857
0.539949
0.523041
0.50554
0.488678
0.472134
0.456953
0.442436
0.429593
0.417327
0.406911
0.396811
0.388481
0.380085
0.373106
0.365563
0.359061
0.351903
0.345664
0.338835
0.332791
0.326237
0.320308
0.313966
0.307998
0.301768
0.295616
0.289535
0.283202
0.277411
0.270997
0.265747
0.259306
0.254875
0.248383
0.245061
0.237634
0.573584
0.572772
0.567294
0.55552
0.539333
0.52238
0.504485
0.487529
0.470458
0.455052
0.439822
0.42654
0.413385
0.402189
0.390993
0.38154
0.371894
0.363629
0.35494
0.347275
0.339145
0.331828
0.324098
0.317067
0.309738
0.302973
0.296048
0.289524
0.283026
0.276732
0.270719
0.264649
0.259217
0.253343
0.248603
0.242859
0.238951
0.233238
0.230333
0.223819
0.573527
0.572673
0.567113
0.555224
0.538842
0.52181
0.503681
0.486572
0.469237
0.45355
0.437965
0.42425
0.410656
0.398848
0.387096
0.376892
0.366613
0.357575
0.348316
0.340025
0.331464
0.3237
0.315693
0.308372
0.300882
0.293971
0.287006
0.280497
0.274089
0.267961
0.262149
0.256361
0.2512
0.245692
0.241257
0.235939
0.232327
0.227078
0.22442
0.218472
0.573488
0.572593
0.566972
0.554954
0.538512
0.521321
0.503121
0.4858
0.468377
0.452409
0.436669
0.422593
0.408782
0.396542
0.384495
0.373818
0.363205
0.35372
0.344171
0.335541
0.326788
0.318815
0.310726
0.303317
0.295848
0.28896
0.282107
0.275707
0.269476
0.263524
0.257934
0.252376
0.24746
0.24222
0.238027
0.233
0.229602
0.224664
0.222158
0.216584
0.57346
0.572534
0.566869
0.554738
0.538295
0.520949
0.502742
0.485237
0.467789
0.451612
0.435805
0.421462
0.407546
0.395013
0.382821
0.371843
0.361072
0.351315
0.341644
0.33281
0.324002
0.315906
0.307836
0.300379
0.292996
0.286123
0.279411
0.27308
0.267035
0.261197
0.255821
0.25041
0.245706
0.24064
0.236634
0.231803
0.228554
0.223821
0.221429
0.216072
0.573443
0.572496
0.566808
0.554584
0.538181
0.520696
0.502525
0.484861
0.467442
0.451092
0.435293
0.420743
0.406817
0.394065
0.381847
0.370647
0.359853
0.349894
0.340225
0.33123
0.322466
0.314254
0.30627
0.298742
0.291483
0.284581
0.278022
0.271694
0.265823
0.260015
0.254819
0.249468
0.244921
0.239947
0.236066
0.231351
0.228195
0.223587
0.221281
0.216027
0.573442
0.572481
0.566805
0.554539
0.538174
0.520569
0.502453
0.484654
0.467299
0.450808
0.435073
0.420363
0.4065
0.39358
0.381425
0.370055
0.359328
0.349207
0.339619
0.330483
0.321814
0.313489
0.305613
0.298001
0.290853
0.283899
0.277445
0.271104
0.26532
0.259534
0.254407
0.249088
0.244631
0.2397
0.235886
0.231226
0.228117
0.22357
0.221306
0.216101
0.339644
0.341424
0.343086
0.343596
0.343165
0.341981
0.339605
0.336519
0.332764
0.328557
0.323962
0.319125
0.314068
0.308898
0.303604
0.298246
0.2928
0.287297
0.281726
0.276103
0.270451
0.264774
0.259136
0.253511
0.248009
0.242551
0.237304
0.232106
0.227204
0.222321
0.217826
0.213275
0.209234
0.204973
0.201451
0.197372
0.194473
0.190425
0.188301
0.183593
0.339669
0.341418
0.343116
0.343654
0.343236
0.342074
0.339724
0.336693
0.332954
0.328815
0.324243
0.319491
0.314466
0.309391
0.304134
0.298878
0.293467
0.288059
0.282507
0.276963
0.271308
0.26569
0.260025
0.25444
0.248891
0.243458
0.238146
0.232959
0.227984
0.223099
0.218536
0.21396
0.20986
0.205558
0.201992
0.197867
0.194932
0.190834
0.188682
0.183919
0.339677
0.341457
0.343165
0.343771
0.343376
0.342259
0.339972
0.337031
0.333351
0.329332
0.324833
0.320228
0.315303
0.310399
0.305261
0.300187
0.294896
0.289657
0.284197
0.278785
0.273178
0.267644
0.26198
0.256436
0.250845
0.245414
0.240028
0.234811
0.229742
0.2248
0.220133
0.215482
0.211285
0.20689
0.203238
0.199012
0.196005
0.191803
0.189593
0.184714
0.339686
0.341516
0.343239
0.343947
0.343589
0.34254
0.340356
0.337546
0.333972
0.330128
0.325767
0.321382
0.316646
0.312005
0.307098
0.302309
0.297257
0.292289
0.287028
0.281822
0.276343
0.270937
0.265323
0.259829
0.254219
0.248774
0.243315
0.238032
0.232849
0.227803
0.222998
0.218216
0.213875
0.209332
0.205545
0.201161
0.198037
0.19367
0.191371
0.186299
0.339698
0.341593
0.343339
0.344182
0.343877
0.342922
0.340885
0.338257
0.334835
0.331239
0.327103
0.323025
0.318591
0.314346
0.309816
0.305476
0.300832
0.2963
0.291395
0.28653
0.281296
0.276109
0.270625
0.265236
0.259652
0.25421
0.248692
0.243334
0.238028
0.232848
0.227879
0.222918
0.218392
0.213642
0.209669
0.205058
0.201768
0.197161
0.194734
0.189374
0.339716
0.341685
0.343464
0.344473
0.344241
0.343408
0.341583
0.339156
0.335989
0.332692
0.328901
0.32526
0.32129
0.317619
0.313692
0.310039
0.306077
0.302253
0.297948
0.293655
0.288871
0.28409
0.278897
0.273762
0.268343
0.263027
0.257552
0.252192
0.246819
0.241526
0.236403
0.231245
0.226508
0.221497
0.217289
0.212378
0.208864
0.203931
0.201325
0.195572
0.339735
0.341795
0.343608
0.344823
0.344679
0.343999
0.342457
0.340261
0.337472
0.334537
0.331278
0.328196
0.324958
0.322108
0.319155
0.316559
0.313737
0.311042
0.307767
0.304465
0.300554
0.29664
0.292199
0.287795
0.28299
0.278255
0.273228
0.26824
0.263084
0.2579
0.252754
0.247477
0.242542
0.237265
0.232789
0.227542
0.223763
0.218459
0.215655
0.20949
0.339743
0.341932
0.343751
0.345233
0.345186
0.3447
0.343477
0.341638
0.339298
0.336881
0.334342
0.332044
0.329899
0.328265
0.326854
0.325873
0.324998
0.324161
0.322837
0.321524
0.319733
0.318049
0.315981
0.314027
0.311506
0.308873
0.305602
0.302121
0.298084
0.293768
0.289195
0.284308
0.279561