/*--------------------------------*- C++ -*----------------------------------*\
| =========                 |                                                 |
| \\      /  F ield         | OpenFOAM: The Open Source CFD Toolbox           |
|  \\    /   O peration     | Version:  2412                                  |
|   \\  /    A nd           | Website:  www.openfoam.com                      |
|    \\/     M anipulation  |                                                 |
\*---------------------------------------------------------------------------*/
FoamFile
{
    version     2.0;
    format      ascii;
    arch        "LSB;label=32;scalar=64";
    class       volScalarField;
    location    "1000";
    object      nut;
}
// * * * * * * * * * * * * * * * * * * * * * * * * * * * * * * * * * * * * * //

dimensions      [0 2 -1 0 0 0 0];

internalField   nonuniform List<scalar> 
47360
(
0.137669
0.127669
0.120207
0.114608
0.110328
0.107012
0.104392
0.102298
0.100587
0.0991825
0.0979962
0.0970315
0.0962427
0.0955793
0.0950248
0.0945378
0.0941224
0.0937368
0.093402
0.0930694
0.092777
0.0924656
0.092191
0.0918794
0.091608
0.0912831
0.0910078
0.0906618
0.0903815
0.0900105
0.0897278
0.0893303
0.0890513
0.0886277
0.0883595
0.0879135
0.0876605
0.0871986
0.0869578
0.0863914
0.13767
0.127668
0.120209
0.114607
0.110323
0.107007
0.104383
0.102288
0.100575
0.0991676
0.0979827
0.0970259
0.0962377
0.0955822
0.0950285
0.0945497
0.0941356
0.093758
0.0934246
0.0930988
0.0928075
0.0925002
0.0922257
0.091915
0.0916427
0.0913151
0.0910381
0.090686
0.0904031
0.0900233
0.0897373
0.0893298
0.0890464
0.0886121
0.0883381
0.0878812
0.0876221
0.0871491
0.0869045
0.086323
0.13767
0.127667
0.120208
0.114604
0.110316
0.106996
0.104369
0.102268
0.100555
0.0991374
0.0979597
0.0970133
0.0962319
0.0955869
0.0950413
0.0945737
0.0941692
0.0938028
0.0934793
0.0931632
0.09288
0.0925786
0.0923094
0.0919994
0.0917283
0.0913956
0.0911158
0.0907533
0.0904645
0.09007
0.0897757
0.0893501
0.0890565
0.0886025
0.0883172
0.0878397
0.0875692
0.0870742
0.0868226
0.0862095
0.137671
0.127666
0.120207
0.114597
0.110306
0.106978
0.104349
0.102236
0.100525
0.0990894
0.0979251
0.0969928
0.0962243
0.0955939
0.0950636
0.0946127
0.0942268
0.0938785
0.0935752
0.0932755
0.0930105
0.0927208
0.0924646
0.0921594
0.0918952
0.0915597
0.0912804
0.0909072
0.0906124
0.0902001
0.0898947
0.0894456
0.0891376
0.0886565
0.0883546
0.0878478
0.0875604
0.0870352
0.0867702
0.0861193
0.137671
0.127666
0.120204
0.114589
0.11029
0.106956
0.104315
0.102198
0.10047
0.0990389
0.0978894
0.0969718
0.0962198
0.0956082
0.0950998
0.0946744
0.0943176
0.0940002
0.0937305
0.0934624
0.0932301
0.092967
0.0927381
0.0924509
0.0922061
0.0918783
0.0916095
0.0912342
0.0909415
0.0905177
0.0902068
0.089738
0.0894182
0.0889108
0.0885932
0.0880555
0.0877507
0.0871921
0.0869081
0.0862183
0.137671
0.127666
0.120199
0.114579
0.110269
0.106927
0.104268
0.102149
0.100391
0.0989753
0.0978437
0.0969428
0.0962126
0.095627
0.0951504
0.094765
0.0944528
0.0941896
0.0939755
0.0937692
0.0935944
0.0933938
0.0932208
0.0929936
0.0928021
0.0925272
0.0923063
0.0919712
0.0917162
0.0913164
0.0910291
0.0905675
0.0902565
0.089742
0.0894212
0.0888656
0.0885499
0.0879666
0.0876688
0.086945
0.13767
0.127667
0.120193
0.114567
0.11024
0.106888
0.104207
0.102078
0.100295
0.098898
0.097784
0.0969044
0.0962013
0.0956515
0.0952208
0.0948966
0.0946564
0.0944876
0.0943749
0.0942829
0.0942296
0.0941811
0.0941597
0.0941313
0.0941075
0.0940549
0.0939945
0.0938632
0.0937445
0.0934957
0.0933104
0.0929356
0.0926905
0.092215
0.0919236
0.0913764
0.0910648
0.0904714
0.0901641
0.0894146
0.137674
0.127661
0.120193
0.114542
0.11021
0.106827
0.104139
0.10197
0.100191
0.0988153
0.0977073
0.0968584
0.0961806
0.0956865
0.0953153
0.0950927
0.0949827
0.0949975
0.0950672
0.0952188
0.0955342
0.0959311
0.096479
0.0970284
0.0976427
0.0981484
0.0986407
0.098946
0.0992025
0.0992418
0.099192
0.0990325
0.0988297
0.0983982
0.0981046
0.0975106
0.097162
0.0964844
0.0961287
0.095263
0.137689
0.127638
0.120213
0.114485
0.110196
0.106723
0.10407
0.10182
0.100066
0.0986996
0.0976028
0.0967898
0.0961455
0.0957279
0.0954434
0.0954541
0.0955703
0.0958586
0.0964609
0.0975209
0.0991145
0.101022
0.103114
0.105124
0.106961
0.108467
0.109677
0.110493
0.111043
0.111223
0.111163
0.11094
0.110629
0.109987
0.109524
0.108688
0.108175
0.107255
0.106778
0.105638
0.1377
0.12762
0.120226
0.114421
0.110184
0.106594
0.10398
0.101659
0.0999621
0.0985453
0.0974874
0.0966893
0.0960994
0.0957526
0.0957972
0.0960344
0.0966515
0.0979989
0.10075
0.104947
0.11002
0.114891
0.119367
0.123011
0.12592
0.128017
0.129453
0.130299
0.13056
0.130452
0.130141
0.129445
0.128756
0.127659
0.126841
0.125575
0.12478
0.123443
0.122758
0.121129
0.137685
0.127642
0.120184
0.114414
0.110093
0.106502
0.103835
0.101463
0.0998104
0.0983261
0.0973268
0.0965425
0.0960162
0.0960379
0.0963286
0.0973212
0.0998581
0.105371
0.115279
0.125587
0.134889
0.142222
0.148055
0.152034
0.154985
0.156683
0.157858
0.157849
0.15756
0.156783
0.155564
0.153964
0.152419
0.15049
0.148919
0.146842
0.14545
0.143283
0.142166
0.139549
0.137654
0.127695
0.120094
0.114457
0.1099
0.106467
0.10359
0.101281
0.099568
0.0980668
0.0971359
0.0963
0.0960967
0.0963477
0.0975283
0.101442
0.111358
0.130068
0.149007
0.163678
0.17443
0.181795
0.187025
0.189679
0.191837
0.192657
0.192229
0.190962
0.188478
0.185401
0.182072
0.178643
0.175411
0.17209
0.169229
0.16606
0.163744
0.160575
0.15894
0.15523
0.137634
0.127713
0.120035
0.114439
0.109764
0.106357
0.103364
0.101106
0.0992399
0.0978256
0.0968513
0.0960866
0.0961886
0.0971354
0.101722
0.115491
0.14628
0.178817
0.200279
0.214314
0.223261
0.22901
0.231131
0.230534
0.228119
0.223195
0.217313
0.211328
0.205731
0.200527
0.195794
0.191364
0.187362
0.183546
0.180191
0.176777
0.174076
0.170715
0.168862
0.164897
0.137628
0.127699
0.120009
0.11437
0.109646
0.10621
0.103066
0.100903
0.0988423
0.0976183
0.0963797
0.0959325
0.0964263
0.0995975
0.115614
0.152118
0.209196
0.242169
0.260063
0.266502
0.265879
0.262709
0.256462
0.249473
0.23955
0.228836
0.21903
0.210589
0.203956
0.198837
0.194762
0.191232
0.188114
0.185244
0.182563
0.179822
0.177376
0.1746
0.172745
0.169496
0.137639
0.127685
0.120008
0.114292
0.109563
0.106032
0.102786
0.10067
0.098427
0.0973307
0.0957929
0.0958486
0.0971647
0.106921
0.149496
0.218483
0.282423
0.294683
0.29224
0.286337
0.277197
0.266436
0.254588
0.242335
0.223344
0.207316
0.196838
0.191376
0.188798
0.187574
0.186667
0.185499
0.184002
0.182238
0.18039
0.178396
0.176452
0.174387
0.172632
0.170995
0.137688
0.127623
0.120074
0.114139
0.109561
0.105762
0.102647
0.100261
0.0981956
0.0967572
0.0954104
0.0956818
0.0988477
0.124057
0.202341
0.274568
0.314127
0.30816
0.288556
0.272876
0.260948
0.250144
0.238404
0.222064
0.184433
0.169693
0.167108
0.169142
0.172145
0.175031
0.177008
0.177841
0.177964
0.177504
0.176566
0.175322
0.174017
0.172629
0.171439
0.171317
0.1377
0.127613
0.120067
0.114076
0.109478
0.105573
0.102474
0.0999447
0.09789
0.0962426
0.0950308
0.09555
0.101988
0.143447
0.227926
0.290987
0.145221
0.14212
0.148845
0.156991
0.163381
0.168055
0.171149
0.172679
0.17324
0.17317
0.172679
0.171969
0.171273
0.170488
0.170441
0.171475
0.137685
0.127635
0.120013
0.114072
0.109351
0.105447
0.102277
0.0997067
0.0975663
0.0958543
0.0946511
0.095325
0.105327
0.151687
0.233271
0.274432
0.12962
0.131356
0.141409
0.150952
0.158277
0.163774
0.167453
0.169655
0.170687
0.170991
0.170779
0.170158
0.169465
0.169134
0.169769
0.171781
0.137699
0.127613
0.120013
0.114029
0.109292
0.105346
0.102154
0.0995241
0.0973419
0.0955555
0.0943616
0.095131
0.107836
0.15793
0.234152
0.259538
0.123362
0.127625
0.138573
0.148121
0.155492
0.1614
0.165254
0.167859
0.169233
0.169772
0.169841
0.169467
0.168897
0.168566
0.169623
0.172108
0.137704
0.127588
0.119991
0.114021
0.10926
0.105289
0.102099
0.0994368
0.0972257
0.0954312
0.0941931
0.0950594
0.108526
0.158964
0.232517
0.252707
0.121051
0.126511
0.137677
0.147055
0.154308
0.160424
0.164285
0.167052
0.16859
0.169267
0.169424
0.169206
0.168761
0.16849
0.169675
0.1723
0.137705
0.127588
0.119991
0.114021
0.10926
0.105289
0.102099
0.0994372
0.0972299
0.095416
0.0942191
0.0949983
0.108586
0.158942
0.23252
0.252708
0.121051
0.126511
0.137677
0.147055
0.154308
0.160424
0.164284
0.167051
0.16859
0.169266
0.169424
0.169205
0.16876
0.16849
0.169674
0.1723
0.1377
0.127613
0.120013
0.114029
0.109292
0.105346
0.102155
0.0995241
0.0973387
0.0955678
0.0943458
0.0951707
0.107747
0.15796
0.234148
0.259537
0.123361
0.127625
0.138573
0.14812
0.15549
0.161398
0.165252
0.167857
0.16923
0.16977
0.169839
0.169464
0.168894
0.168563
0.169621
0.172106
0.137685
0.127635
0.120013
0.114072
0.109351
0.105447
0.102277
0.099708
0.0975635
0.0958494
0.0946713
0.0952896
0.105369
0.151724
0.233257
0.27443
0.129618
0.131355
0.141408
0.15095
0.158274
0.163771
0.16745
0.169652
0.170683
0.170987
0.170775
0.170154
0.169461
0.169129
0.169764
0.171777
0.1377
0.127613
0.120067
0.114076
0.109478
0.105573
0.102474
0.0999454
0.0978881
0.0962326
0.0950625
0.0954551
0.102197
0.143017
0.228041
0.290984
0.145216
0.142116
0.148842
0.156987
0.163376
0.16805
0.171144
0.172674
0.173234
0.173164
0.172672
0.171963
0.171266
0.170482
0.170435
0.171469
0.137688
0.127623
0.120074
0.114139
0.109561
0.105762
0.102647
0.100261
0.0981939
0.0967569
0.0954209
0.0956652
0.0988571
0.124249
0.202318
0.274563
0.314125
0.308157
0.288552
0.27287
0.260941
0.250136
0.238394
0.222053
0.184422
0.169683
0.1671
0.169135
0.172137
0.175023
0.177
0.177834
0.177956
0.177495
0.176557
0.175313
0.174008
0.17262
0.17143
0.171308
0.137639
0.127685
0.120008
0.114292
0.109563
0.106032
0.102786
0.10067
0.098426
0.097333
0.0957971
0.0958478
0.0971622
0.106977
0.149459
0.21849
0.282416
0.294678
0.292234
0.286331
0.27719
0.266429
0.254579
0.242326
0.223333
0.207305
0.196829
0.191367
0.188789
0.187565
0.186659
0.18549
0.183993
0.182228
0.18038
0.178386
0.176442
0.174376
0.172622
0.170984
0.137628
0.1277
0.120009
0.11437
0.109646
0.106211
0.103066
0.100903
0.0988419
0.0976197
0.0963802
0.0959302
0.0964421
0.0995688
0.115645
0.152089
0.209195
0.242162
0.260058
0.266498
0.265875
0.262705
0.256457
0.249468
0.239544
0.228831
0.219025
0.210582
0.203948
0.198829
0.194753
0.191223
0.188104
0.185235
0.182553
0.179811
0.177365
0.174589
0.172734
0.169483
0.137634
0.127713
0.120035
0.11444
0.109764
0.106357
0.103364
0.101106
0.0992395
0.0978265
0.0968505
0.0960854
0.0962003
0.0970878
0.10182
0.115359
0.146302
0.178813
0.200267
0.214303
0.223252
0.229003
0.231125
0.230529
0.228114
0.22319
0.217308
0.211322
0.205725
0.200521
0.195786
0.191356
0.187353
0.183536
0.18018
0.176765
0.174063
0.170702
0.168848
0.164882
0.137653
0.127695
0.120094
0.114457
0.1099
0.106467
0.10359
0.10128
0.099568
0.0980665
0.0971362
0.0962989
0.0961012
0.0963235
0.0976226
0.101238
0.111549
0.129976
0.148978
0.163654
0.174408
0.181774
0.187006
0.189661
0.19182
0.192642
0.192214
0.190949
0.188465
0.185388
0.182059
0.17863
0.175397
0.172076
0.169214
0.166044
0.163728
0.160558
0.158923
0.155212
0.137685
0.127642
0.120184
0.114414
0.110093
0.106502
0.103835
0.101463
0.0998105
0.0983258
0.0973271
0.0965423
0.0960167
0.0960332
0.0963675
0.0972046
0.10002
0.105304
0.11525
0.125562
0.13486
0.142192
0.148025
0.152004
0.154956
0.156653
0.157829
0.157821
0.157532
0.156755
0.155537
0.153937
0.152393
0.150463
0.148892
0.146816
0.145423
0.143256
0.142139
0.139523
0.1377
0.127619
0.120227
0.114421
0.110184
0.106594
0.10398
0.101658
0.0999623
0.0985449
0.0974877
0.0966889
0.0960995
0.0957527
0.095807
0.0959836
0.0968052
0.0977717
0.100852
0.104956
0.110011
0.114874
0.119346
0.122986
0.125893
0.127987
0.129422
0.130267
0.130527
0.130418
0.130108
0.129411
0.128722
0.127624
0.126806
0.12554
0.124745
0.123408
0.122722
0.121094
0.137689
0.127638
0.120213
0.114484
0.110196
0.106723
0.10407
0.10182
0.100066
0.0986994
0.0976029
0.0967897
0.0961454
0.0957281
0.0954445
0.0954476
0.0956025
0.0958016
0.096489
0.0975271
0.0991145
0.101019
0.103107
0.105114
0.106948
0.10845
0.109658
0.110472
0.111021
0.111198
0.111137
0.110912
0.110601
0.109957
0.109494
0.108657
0.108144
0.107222
0.106745
0.105604
0.137674
0.127661
0.120193
0.114542
0.110211
0.106827
0.104139
0.10197
0.100191
0.0988153
0.0977073
0.0968585
0.0961805
0.0956866
0.0953153
0.0950924
0.0949853
0.0949915
0.0950815
0.095205
0.0955406
0.0959322
0.0964786
0.0970262
0.0976393
0.0981427
0.0986341
0.0989368
0.0991928
0.0992293
0.0991789
0.0990178
0.0988141
0.0983811
0.0980867
0.0974913
0.0971419
0.096463
0.0961068
0.0952396
0.13767
0.127667
0.120193
0.114567
0.11024
0.106888
0.104207
0.102078
0.100295
0.0988981
0.097784
0.0969044
0.0962012
0.0956516
0.0952208
0.0948966
0.0946565
0.0944875
0.0943755
0.0942827
0.09423
0.0941813
0.0941598
0.0941309
0.0941068
0.0940533
0.0939925
0.0938602
0.0937408
0.0934909
0.093305
0.0929291
0.0926833
0.0922068
0.0919147
0.0913663
0.0910541
0.0904596
0.0901518
0.0894008
0.137671
0.127666
0.120199
0.114579
0.110269
0.106927
0.104268
0.102149
0.100391
0.0989753
0.0978436
0.0969428
0.0962126
0.095627
0.0951504
0.094765
0.0944528
0.0941896
0.0939755
0.0937691
0.0935944
0.0933937
0.0932207
0.0929933
0.0928017
0.0925265
0.0923054
0.0919699
0.0917146
0.0913143
0.0910267
0.0905645
0.0902531
0.0897379
0.0894167
0.0888603
0.0885442
0.0879601
0.0876619
0.0869371
0.137671
0.127666
0.120204
0.114589
0.11029
0.106956
0.104315
0.102198
0.10047
0.0990389
0.0978894
0.0969718
0.0962198
0.0956082
0.0950999
0.0946744
0.0943176
0.0940002
0.0937305
0.0934624
0.0932301
0.0929669
0.092738
0.0924506
0.0922057
0.0918778
0.0916089
0.0912333
0.0909405
0.0905165
0.0902054
0.0897363
0.0894163
0.0889085
0.0885907
0.0880526
0.0877475
0.0871884
0.0869042
0.0862137
0.137671
0.127666
0.120207
0.114597
0.110306
0.106978
0.104349
0.102236
0.100525
0.0990894
0.0979251
0.0969928
0.0962243
0.0955939
0.0950636
0.0946127
0.0942268
0.0938785
0.0935752
0.0932755
0.0930105
0.0927207
0.0924645
0.0921592
0.0918949
0.0915592
0.0912799
0.0909066
0.0906117
0.0901992
0.0898938
0.0894444
0.0891363
0.0886549
0.088353
0.0878459
0.0875584
0.0870329
0.0867678
0.0861164
0.13767
0.127667
0.120208
0.114604
0.110316
0.106996
0.104369
0.102268
0.100555
0.0991374
0.0979596
0.0970133
0.0962319
0.0955869
0.0950413
0.0945737
0.0941692
0.0938028
0.0934793
0.0931631
0.0928799
0.0925785
0.0923092
0.0919992
0.091728
0.0913952
0.0911154
0.0907529
0.090464
0.0900694
0.089775
0.0893492
0.0890556
0.0886015
0.088316
0.0878384
0.0875678
0.0870726
0.0868207
0.0862079
0.13767
0.127668
0.120209
0.114607
0.110323
0.107007
0.104383
0.102288
0.100575
0.0991675
0.0979827
0.0970259
0.0962377
0.0955822
0.0950285
0.0945497
0.0941357
0.093758
0.0934246
0.0930988
0.0928074
0.0925001
0.0922255
0.0919148
0.0916425
0.0913148
0.0910378
0.0906856
0.0904027
0.0900228
0.0897368
0.0893291
0.0890457
0.0886113
0.0883372
0.0878803
0.0876211
0.087148
0.0869029
0.086322
0.137669
0.127669
0.120207
0.114608
0.110328
0.107012
0.104392
0.102298
0.100587
0.0991824
0.0979962
0.0970315
0.0962427
0.0955793
0.0950248
0.0945378
0.0941224
0.0937368
0.093402
0.0930694
0.092777
0.0924655
0.0921909
0.0918792
0.0916078
0.0912828
0.0910076
0.0906615
0.0903811
0.09001
0.0897274
0.0893297
0.0890507
0.0886271
0.0883587
0.0879127
0.0876596
0.0871977
0.086957
0.0863901
0.440644
0.444658
0.447509
0.45291
0.45778
0.462274
0.466432
0.470144
0.473359
0.476022
0.478228
0.479489
0.479818
0.479364
0.478173
0.476366
0.474014
0.471205
0.468042
0.464561
0.460918
0.457081
0.453253
0.449336
0.445574
0.441804
0.438295
0.434844
0.431706
0.428683
0.425984
0.423452
0.421205
0.419126
0.417399
0.415633
0.414415
0.412852
0.412053
0.410374
0.440634
0.444668
0.447508
0.452902
0.457755
0.462278
0.466401
0.470155
0.473302
0.476038
0.478126
0.479361
0.479542
0.479058
0.477686
0.475844
0.473275
0.470427
0.467005
0.463495
0.459546
0.455681
0.451524
0.447611
0.443504
0.439756
0.43591
0.432488
0.429058
0.426047
0.423126
0.420546
0.418174
0.416028
0.414236
0.412423
0.411173
0.409585
0.408782
0.407096
0.440616
0.444683
0.447514
0.452901
0.457731
0.462285
0.466356
0.470164
0.47322
0.476055
0.477983
0.479107
0.479085
0.478459
0.476837
0.474814
0.471944
0.468874
0.465101
0.461329
0.456998
0.452875
0.448303
0.444098
0.439578
0.435551
0.431331
0.427682
0.423936
0.420738
0.417563
0.414833
0.412285
0.41
0.408093
0.406185
0.404875
0.403235
0.402432
0.400721
0.440591
0.444711
0.447526
0.452861
0.45772
0.462293
0.466322
0.470167
0.473139
0.476089
0.477803
0.478728
0.478439
0.477577
0.475626
0.473315
0.470049
0.466628
0.462391
0.458205
0.453363
0.448772
0.443685
0.439042
0.434033
0.429608
0.424918
0.420856
0.416676
0.413123
0.409609
0.406616
0.40383
0.401365
0.399312
0.397298
0.395923
0.394244
0.39345
0.391772
0.440562
0.444747
0.447545
0.452829
0.457731
0.462276
0.466343
0.470111
0.473198
0.475996
0.477509
0.478164
0.477609
0.476429
0.474129
0.471445
0.467736
0.463868
0.459093
0.454377
0.448928
0.443761
0.438046
0.43281
0.42719
0.422204
0.416996
0.412506
0.407927
0.404047
0.400224
0.396992
0.393989
0.391378
0.389199
0.387127
0.38572
0.384066
0.383317
0.381808
0.440538
0.444784
0.447567
0.452831
0.457748
0.462251
0.4664
0.470045
0.473371
0.475877
0.477215
0.477515
0.476738
0.47516
0.472559
0.469443
0.465319
0.460974
0.455655
0.450382
0.444323
0.438567
0.432255
0.426483
0.420328
0.414894
0.409235
0.4044
0.399495
0.395421
0.391431
0.388154
0.385102
0.38255
0.380405
0.378491
0.377193
0.375801
0.37523
0.374213
0.440506
0.444825
0.447591
0.452845
0.457726
0.462276
0.466449
0.470119
0.473551
0.475808
0.476934
0.476886
0.475962
0.473944
0.471227
0.467655
0.463351
0.458597
0.452922
0.447265
0.440903
0.434875
0.428411
0.422494
0.416413
0.411075
0.405658
0.40106
0.396491
0.392804
0.389235
0.386536
0.384044
0.38225
0.380751
0.379755
0.37912
0.378807
0.378852
0.379317
0.440422
0.444895
0.447617
0.452746
0.457697
0.462393
0.466487
0.470469
0.4736
0.475836
0.476586
0.476515
0.475363
0.473175
0.470597
0.466704
0.462878
0.457932
0.452685
0.447552
0.442012
0.437046
0.431895
0.427515
0.423124
0.419819
0.416646
0.414489
0.412622
0.411449
0.410391
0.410021
0.409614
0.409915
0.410154
0.411131
0.411915
0.413614
0.41473
0.417628
0.440274
0.445006
0.447654
0.452507
0.457824
0.462407
0.466836
0.47071
0.474039
0.475937
0.476511
0.476706
0.475203
0.473642
0.471268
0.467986
0.465868
0.461529
0.459798
0.458512
0.456661
0.456519
0.456962
0.458969
0.460891
0.46397
0.466234
0.470305
0.47332
0.475651
0.479286
0.482794
0.485771
0.489358
0.492327
0.496009
0.498726
0.502635
0.504757
0.50962
0.44016
0.445103
0.447699
0.4524
0.458172
0.462105
0.467844
0.470169
0.475141
0.475394
0.477476
0.477084
0.476405
0.475974
0.474653
0.474783
0.475918
0.480047
0.486843
0.496813
0.508451
0.520253
0.533236
0.545519
0.557802
0.569762
0.581768
0.593011
0.603594
0.6138
0.620758
0.626248
0.631942
0.637331
0.640646
0.644386
0.646627
0.649638
0.650789
0.653359
0.440117
0.445162
0.447753
0.452457
0.458291
0.462236
0.468561
0.470297
0.476556
0.475137
0.479815
0.478592
0.480583
0.481462
0.484419
0.491353
0.507393
0.537694
0.569222
0.601555
0.629305
0.659082
0.687112
0.715513
0.743821
0.768286
0.791701
0.806361
0.823921
0.8281
0.83344
0.838359
0.83895
0.83899
0.837127
0.835409
0.832238
0.829046
0.825934
0.82025
0.44007
0.445272
0.447829
0.452323
0.458179
0.463444
0.468239
0.472342
0.476461
0.477255
0.482588
0.483469
0.487206
0.492495
0.507626
0.536839
0.610022
0.683476
0.741339
0.790681
0.845505
0.903903
0.957618
1.00845
1.04625
1.07204
1.08655
1.08621
1.08339
1.07553
1.06596
1.05633
1.04631
1.03711
1.02724
1.01882
1.00877
1.00023
0.991947
0.979075
0.440309
0.445231
0.447895
0.45276
0.458317
0.46389
0.468483
0.472879
0.476759
0.482006
0.485488
0.489599
0.498428
0.5154
0.567072
0.658485
0.842767
0.922936
1.01897
1.11489
1.21404
1.28938
1.34235
1.37678
1.37498
1.36109
1.33258
1.3032
1.27728
1.25509
1.23624
1.22019
1.20582
1.19269
1.17949
1.16736
1.15343
1.14218
1.12707
1.11449
0.440892
0.4449
0.447909
0.453569
0.458016
0.464638
0.46896
0.474577
0.480497
0.485194
0.489334
0.499201
0.517287
0.562625
0.74728
0.916384
1.17646
1.30834
1.46929
1.5769
1.653
1.66405
1.6673
1.63436
1.56365
1.48899
1.42637
1.38539
1.36017
1.34473
1.33347
1.32343
1.31304
1.30203
1.28954
1.27626
1.26141
1.24823
1.23101
1.22131
0.44082
0.444873
0.447953
0.453742
0.457927
0.465428
0.469574
0.477984
0.482129
0.488343
0.495777
0.514853
0.546507
0.664118
1.07834
1.30567
1.6676
1.83071
1.90051
1.89751
1.88608
1.85072
1.7981
1.69263
1.51939
1.41105
1.35471
1.34476
1.35545
1.36631
1.36949
1.36753
1.36284
1.35632
1.34844
1.33948
1.32872
1.31799
1.30465
1.30229
0.440182
0.445257
0.447958
0.453336
0.458811
0.465252
0.470676
0.479791
0.484457
0.491726
0.505065
0.531182
0.591756
0.829131
1.5016
1.85265
2.13446
2.10097
2.04077
1.99922
1.95317
1.8915
1.80366
1.6502
1.37197
1.26023
1.23787
1.27359
1.3199
1.36089
1.38336
1.39513
1.40324
1.40266
1.39817
1.39011
1.38026
1.36937
1.36053
1.36033
0.439975
0.445319
0.447922
0.453002
0.459587
0.464902
0.4729
0.480117
0.486526
0.495782
0.514899
0.545291
0.651411
0.996078
1.72504
2.04508
1.11373
1.05811
1.10334
1.18816
1.27245
1.33411
1.37239
1.39816
1.4146
1.42263
1.42575
1.42323
1.41783
1.41111
1.4077
1.41206
0.440086
0.445182
0.447846
0.453163
0.459326
0.466059
0.473557
0.480813
0.488428
0.50023
0.520623
0.56071
0.683779
1.07757
1.77319
2.0809
0.990763
0.939945
1.01261
1.12637
1.23449
1.31025
1.35987
1.39626
1.42132
1.43583
1.44387
1.4469
1.4456
1.44245
1.44309
1.44873
0.439932
0.445181
0.4478
0.453067
0.459418
0.466284
0.474356
0.481064
0.490321
0.503037
0.525554
0.57141
0.712391
1.12439
1.76105
1.97269
0.933861
0.878249
0.966692
1.09808
1.21532
1.29779
1.35439
1.39588
1.42671
1.44565
1.45629
1.46219
1.46392
1.46397
1.46822
1.47475
0.439668
0.445114
0.447748
0.453079
0.459531
0.466374
0.475101
0.481233
0.49051
0.504362
0.528033
0.575911
0.724232
1.14293
1.74769
1.91215
0.90887
0.854496
0.95073
1.09049
1.20878
1.29362
1.35338
1.39737
1.43003
1.45153
1.46314
1.47036
1.47373
1.47545
1.48113
1.48814
0.439666
0.445113
0.447747
0.453077
0.45953
0.466373
0.475102
0.481227
0.49042
0.504789
0.527399
0.576895
0.723515
1.14312
1.74767
1.91215
0.908866
0.854491
0.950727
1.09048
1.20877
1.29361
1.35337
1.39737
1.43003
1.45152
1.46313
1.47035
1.47372
1.47545
1.48112
1.48813
0.439931
0.445181
0.4478
0.453066
0.459418
0.466284
0.474355
0.481066
0.490424
0.502726
0.525844
0.570773
0.712851
1.12424
1.76106
1.97269
0.933849
0.878235
0.96668
1.09807
1.2153
1.29777
1.35437
1.39587
1.42669
1.44563
1.45627
1.46217
1.4639
1.46395
1.4682
1.47473
0.440086
0.445182
0.447846
0.453163
0.459325
0.466058
0.473563
0.480772
0.488499
0.50016
0.520447
0.561003
0.683912
1.07691
1.77318
2.08089
0.990745
0.939921
1.01259
1.12634
1.23446
1.31022
1.35984
1.39623
1.42128
1.4358
1.44383
1.44686
1.44556
1.44241
1.44306
1.44869
0.439975
0.445319
0.447922
0.453002
0.459587
0.464902
0.4729
0.480107
0.486538
0.495965
0.513822
0.547947
0.647266
0.998916
1.72441
2.04523
1.1137
1.05807
1.1033
1.18812
1.27241
1.33406
1.37234
1.39811
1.41454
1.42258
1.42569
1.42317
1.41777
1.41105
1.40764
1.412
0.440182
0.445257
0.447958
0.453337
0.45881
0.465253
0.470675
0.479791
0.48448
0.491681
0.505021
0.531338
0.592327
0.828451
1.5017
1.85261
2.13449
2.101
2.04078
1.99921
1.95314
1.89145
1.80361
1.65014
1.37191
1.26018
1.23781
1.27352
1.31983
1.36082
1.38328
1.39505
1.40316
1.40258
1.39809
1.39003
1.38017
1.36928
1.36044
1.36024
0.44082
0.444874
0.447953
0.453743
0.457927
0.465429
0.469574
0.477984
0.482151
0.488236
0.495965
0.514917
0.546977
0.663612
1.07904
1.30528
1.6677
1.83077
1.90054
1.89752
1.88607
1.85069
1.79805
1.69255
1.5193
1.41096
1.35461
1.34467
1.35534
1.36621
1.36938
1.36742
1.36273
1.3562
1.34832
1.33935
1.32859
1.31787
1.30453
1.30217
0.440892
0.4449
0.447909
0.45357
0.458016
0.464643
0.468952
0.474583
0.480496
0.485194
0.489361
0.499402
0.517011
0.563021
0.746685
0.917085
1.17645
1.30843
1.46937
1.57699
1.65306
1.66407
1.66727
1.63431
1.56358
1.48889
1.42624
1.38527
1.36005
1.34461
1.33334
1.32329
1.3129
1.30189
1.28938
1.2761
1.26125
1.24807
1.23084
1.22114
0.440309
0.445231
0.447896
0.452761
0.458316
0.46389
0.468481
0.472878
0.476761
0.482007
0.485514
0.489647
0.498187
0.516042
0.565394
0.659364
0.841317
0.922338
1.01861
1.11466
1.21388
1.28927
1.34226
1.37669
1.37488
1.36098
1.33245
1.30306
1.27712
1.25492
1.23606
1.22001
1.20563
1.19249
1.17928
1.16715
1.15321
1.14196
1.12685
1.11427
0.44007
0.445273
0.447829
0.452322
0.458179
0.463445
0.468238
0.472342
0.476461
0.477255
0.48259
0.483473
0.48719
0.492674
0.506258
0.535798
0.608606
0.682269
0.740347
0.789873
0.844833
0.903338
0.957135
1.00803
1.04588
1.07171
1.08626
1.08592
1.08311
1.07525
1.06568
1.05605
1.04602
1.03682
1.02694
1.01852
1.00847
0.999927
0.991645
0.978773
0.440116
0.445163
0.447753
0.452456
0.458291
0.462236
0.468561
0.470298
0.476556
0.475139
0.479815
0.478599
0.48061
0.481483
0.484113
0.490883
0.506875
0.536894
0.568328
0.600631
0.628427
0.658232
0.686304
0.714746
0.743101
0.767607
0.791072
0.805763
0.823373
0.827567
0.832926
0.837872
0.838476
0.838527
0.836675
0.834966
0.831801
0.828616
0.825509
0.819834
0.440159
0.445103
0.447699
0.452398
0.458172
0.462105
0.467845
0.470168
0.475143
0.475391
0.477483
0.477074
0.476422
0.475964
0.474613
0.474748
0.475845
0.479684
0.486454
0.496311
0.507871
0.519611
0.532559
0.544821
0.557098
0.569058
0.581071
0.592325
0.602921
0.613121
0.620089
0.625594
0.631299
0.636701
0.640025
0.643779
0.64603
0.649056
0.650216
0.652808
0.440273
0.445006
0.447654
0.452506
0.457824
0.462407
0.466837
0.470709
0.474041
0.475935
0.476513
0.476703
0.475204
0.473644
0.471259
0.467991
0.465838
0.461469
0.45967
0.458335
0.456447
0.456223
0.456602
0.458572
0.460438
0.463506
0.465714
0.469809
0.472762
0.475106
0.478735
0.482225
0.485196
0.488782
0.491749
0.495434
0.498151
0.502067
0.504192
0.509065
0.440422
0.444895
0.447617
0.452746
0.457697
0.462393
0.466487
0.470468
0.4736
0.475835
0.476586
0.476514
0.47536
0.473175
0.470591
0.466703
0.462867
0.457916
0.452653
0.447497
0.441935
0.43694
0.43175
0.427341
0.42291
0.419581
0.416372
0.414195
0.412301
0.411107
0.41003
0.409643
0.40922
0.409508
0.409734
0.4107
0.411476
0.413166
0.414278
0.417169
0.440506
0.444825
0.447591
0.452845
0.457727
0.462276
0.466449
0.470118
0.473551
0.475807
0.476934
0.476885
0.475959
0.473942
0.471222
0.46765
0.463342
0.458585
0.452905
0.447241
0.440868
0.434829
0.428349
0.422417
0.416317
0.410961
0.405524
0.400908
0.396319
0.392614
0.389028
0.386313
0.383806
0.381997
0.380486
0.379477
0.378831
0.378505
0.378543
0.378995
0.440538
0.444784
0.447567
0.452831
0.457748
0.462251
0.4664
0.470045
0.473371
0.475877
0.477214
0.477513
0.476736
0.475158
0.472554
0.469438
0.465311
0.460963
0.455641
0.450365
0.4443
0.438539
0.432221
0.42644
0.420277
0.414834
0.409164
0.404318
0.399402
0.395316
0.391316
0.388027
0.384965
0.382401
0.380247
0.378321
0.377014
0.375611
0.375034
0.374004
0.440562
0.444747
0.447545
0.452829
0.457731
0.462276
0.466343
0.470111
0.473198
0.475996
0.477508
0.478163
0.477607
0.476426
0.474125
0.47144
0.46773
0.46386
0.459082
0.454364
0.448911
0.443741
0.438021
0.432782
0.427157
0.422166
0.416953
0.412457
0.407871
0.403986
0.400156
0.396918
0.393908
0.39129
0.389105
0.387026
0.385613
0.383951
0.383198
0.381681
0.440591
0.444711
0.447526
0.452861
0.45772
0.462293
0.466322
0.470167
0.473139
0.476088
0.477802
0.478727
0.478437
0.477575
0.475623
0.473311
0.470044
0.466621
0.462383
0.458195
0.45335
0.448757
0.443668
0.439021
0.43401
0.429581
0.424888
0.420822
0.41664
0.413083
0.409565
0.406568
0.403778
0.401309
0.399253
0.397234
0.395857
0.394173
0.393377
0.391691
0.440616
0.444683
0.447514
0.452901
0.45773
0.462285
0.466356
0.470164
0.47322
0.476055
0.477983
0.479106
0.479084
0.478457
0.476834
0.474811
0.47194
0.468868
0.465094
0.46132
0.456988
0.452864
0.44829
0.444083
0.439561
0.435532
0.43131
0.427659
0.423912
0.420711
0.417534
0.414801
0.412251
0.409964
0.408055
0.406144
0.404832
0.40319
0.402386
0.400669
0.440634
0.444668
0.447508
0.452902
0.457755
0.462277
0.4664
0.470155
0.473301
0.476038
0.478125
0.47936
0.479541
0.479056
0.477684
0.475841
0.473271
0.470422
0.467
0.463488
0.459538
0.455672
0.451514
0.447599
0.443491
0.439742
0.435894
0.432471
0.429039
0.426027
0.423104
0.420523
0.41815
0.416002
0.414208
0.412394
0.411143
0.409553
0.408751
0.40706
0.440643
0.444658
0.447509
0.45291
0.45778
0.462274
0.466432
0.470144
0.473358
0.476021
0.478228
0.479488
0.479816
0.479362
0.47817
0.476363
0.474011
0.471201
0.468037
0.464555
0.460912
0.457073
0.453244
0.449326
0.445563
0.441792
0.438281
0.434829
0.43169
0.428666
0.425966
0.423433
0.421184
0.419104
0.417376
0.415609
0.414391
0.412825
0.412024
0.410346
0.731322
0.732749
0.734046
0.737149
0.739942
0.742016
0.745492
0.748657
0.751688
0.754456
0.756981
0.759283
0.761192
0.762713
0.763777
0.76438
0.764512
0.76419
0.763411
0.762226
0.760661
0.758793
0.75666
0.754358
0.751915
0.749448
0.74694
0.744552
0.742168
0.740064
0.737914
0.736254
0.734417
0.733213
0.731773
0.730971
0.729987
0.729431
0.729018
0.728648
0.731353
0.732716
0.734073
0.737127
0.739952
0.742005
0.74546
0.748602
0.751587
0.754347
0.756846
0.759106
0.760965
0.762439
0.763427
0.763974
0.763999
0.763602
0.762683
0.761406
0.759668
0.757697
0.755364
0.752963
0.750301
0.74775
0.745013
0.742562
0.739959
0.7378
0.735481
0.733728
0.731784
0.7305
0.72899
0.728134
0.727109
0.726521
0.726098
0.725709
0.731372
0.732696
0.734114
0.737059
0.739956
0.741972
0.745373
0.748514
0.751407
0.75415
0.756611
0.758783
0.760564
0.761936
0.762802
0.763221
0.763069
0.762494
0.761347
0.759841
0.757823
0.755588
0.752941
0.750258
0.747269
0.744436
0.741385
0.738672
0.735791
0.733403
0.730856
0.728919
0.726802
0.725375
0.723743
0.722791
0.721696
0.721054
0.720623
0.720217
0.731398
0.732666
0.734181
0.736945
0.739965
0.741922
0.745234
0.748372
0.751161
0.753874
0.756284
0.75834
0.760006
0.761249
0.761944
0.76219
0.761816
0.760991
0.75954
0.757712
0.755318
0.752702
0.749638
0.746552
0.743144
0.739922
0.736483
0.733414
0.730191
0.727499
0.724673
0.722507
0.720185
0.718606
0.716842
0.715811
0.71466
0.714009
0.713597
0.713258
0.731435
0.732623
0.734276
0.736785
0.739992
0.741865
0.745056
0.74813