/*--------------------------------*- C++ -*----------------------------------*\
| =========                 |                                                 |
| \\      /  F ield         | OpenFOAM: The Open Source CFD Toolbox           |
|  \\    /   O peration     | Version:  2412                                  |
|   \\  /    A nd           | Website:  www.openfoam.com                      |
|    \\/     M anipulation  |                                                 |
\*---------------------------------------------------------------------------*/
FoamFile
{
    version     2.0;
    format      ascii;
    arch        "LSB;label=32;scalar=64";
    class       volScalarField;
    location    "1000";
    object      p;
}
// * * * * * * * * * * * * * * * * * * * * * * * * * * * * * * * * * * * * * //

dimensions      [0 2 -2 0 0 0 0];

internalField   nonuniform List<scalar> 
47360
(
10.7411
10.8274
10.9889
11.0066
10.915
10.7535
10.5189
10.2063
9.81682
9.35006
8.80706
8.18944
7.50235
6.75257
5.95158
5.11277
4.25359
3.39228
2.54864
1.74101
0.986084
0.297528
-0.314388
-0.842097
-1.28248
-1.63332
-1.89803
-2.07751
-2.18101
-2.20898
-2.17563
-2.09023
-1.94383
-1.76539
-1.5426
-1.30247
-1.03078
-0.752195
-0.453225
-0.179255
10.8141
10.8992
11.0622
11.0804
10.9911
10.831
10.5972
10.2845
9.89367
9.42357
8.87499
8.24884
7.55031
6.78591
5.96789
5.10982
4.23092
3.34985
2.48866
1.66549
0.898962
0.201255
-0.415318
-0.946048
-1.38495
-1.73437
-1.9928
-2.16843
-2.26178
-2.28575
-2.24007
-2.14595
-1.99359
-1.80712
-1.57726
-1.32958
-1.05101
-0.766043
-0.461145
-0.181993
10.9582
11.0435
11.2088
11.2295
11.1438
10.9867
10.7549
10.4426
10.0493
9.57297
9.01326
8.37017
7.64829
6.85416
6.0008
5.1032
4.18311
3.26159
2.3638
1.50956
0.718848
0.00382972
-0.623035
-1.15787
-1.59526
-1.93873
-2.18746
-2.35073
-2.42951
-2.43798
-2.37586
-2.26289
-2.09324
-1.89028
-1.64554
-1.38305
-1.09089
-0.793314
-0.476804
-0.188115
11.1739
11.2597
11.4285
11.4538
11.3736
11.222
10.9943
10.6837
10.2878
9.80301
9.22701
8.55842
7.80049
6.96002
6.05077
5.09047
4.1048
3.11911
2.16395
1.26155
0.43422
-0.306583
-0.9478
-1.48805
-1.92167
-2.25504
-2.48714
-2.63067
-2.68599
-2.66997
-2.58173
-2.4418
-2.24612
-2.01781
-1.74912
-1.46411
-1.15093
-0.834058
-0.500119
-0.19718
11.4601
11.5471
11.7211
11.7538
11.6822
11.5395
11.3192
11.0128
10.6155
10.1211
9.52432
8.82169
8.01384
7.1082
6.11856
5.06787
3.98672
2.9087
1.87187
0.902977
0.0255866
-0.748687
-1.40722
-1.95139
-2.3782
-2.6958
-2.90439
-3.01843
-3.03983
-2.9873
-2.86141
-2.68416
-2.45231
-2.18972
-1.88842
-1.57382
-1.23228
-0.889873
-0.532426
-0.209876
11.8152
11.9044
12.086
12.1296
12.0708
11.9418
11.7342
11.4364
11.0409
10.5376
9.91686
9.17159
8.29864
7.30542
6.20511
5.02901
3.81383
2.60814
1.46051
0.404856
-0.535353
-1.3503
-2.02846
-2.57304
-2.984
-3.27562
-3.45128
-3.52772
-3.50644
-3.40793
-3.2318
-3.0031
-2.72055
-2.41098
-2.06536
-1.71145
-1.33292
-0.958408
-0.570975
-0.224485
12.2375
12.3293
12.5217
12.5808
12.5407
12.4321
12.2447
11.9626
11.5754
11.066
10.4207
9.62424
8.66984
7.56115
6.31168
4.96339
3.56243
2.18242
0.88984
-0.276964
-1.29225
-2.14784
-2.84216
-3.38887
-3.77991
-4.02878
-4.14864
-4.16397
-4.08108
-3.92213
-3.68938
-3.40275
-3.06158
-2.69563
-2.2961
-1.89374
-1.46947
-1.05506
-0.628075
-0.249991
12.7245
12.8176
13.0255
13.1061
13.0924
13.0132
12.8568
12.6011
12.2325
11.724
11.057
10.2016
9.14863
7.88851
6.44
4.85352
3.194
1.57691
0.0973926
-1.19649
-2.31131
-3.20809
-3.89061
-4.4039
-4.77713
-5.00346
-5.07946
-5.02885
-4.86082
-4.60385
-4.27198
-3.89555
-3.47158
-3.03125
-2.5631
-2.10176
-1.62231
-1.16272
-0.69154
-0.280368
13.2708
13.3647
13.5931
13.7029
13.7249
13.6877
13.5758
13.3627
13.0276
12.5339
11.8518
10.9348
9.76333
8.30765
6.59173
4.67262
2.64336
0.710301
-1.01643
-2.44834
-3.6213
-4.62047
-5.36324
-5.84125
-6.09336
-6.20181
-6.17609
-6.03706
-5.78369
-5.42966
-4.98934
-4.50075
-3.96968
-3.43008
-2.87434
-2.33613
-1.79121
-1.27575
-0.754296
-0.306298
13.8661
13.9649
14.2191
14.3663
14.4358
14.4554
14.4067
14.2572
13.9782
13.5211
12.8388
11.8645
10.5531
8.84832
6.76895
4.37403
1.8168
-0.561522
-2.52736
-4.30143
-5.59199
-6.45913
-7.08534
-7.52662
-7.71756
-7.70023
-7.53292
-7.22895
-6.80258
-6.29156
-5.70591
-5.08296
-4.43013
-3.78243
-3.13363
-2.51834
-1.91031
-1.34572
-0.786593
-0.312433
14.497
14.6088
14.8952
15.0879
15.2194
15.3125
15.3524
15.2905
15.1044
14.7101
14.0631
13.039
11.577
9.55488
6.97097
3.87269
0.547584
-2.53656
-4.96237
-6.64573
-7.98999
-8.84001
-9.26847
-9.39519
-9.33165
-9.13486
-8.81834
-8.38019
-7.81275
-7.14954
-6.41174
-5.64174
-4.85459
-4.08703
-3.33867
-2.64013
-1.97202
-1.36167
-0.780935
-0.288152
15.1513
15.2847
15.6073
15.857
16.0633
16.2523
16.407
16.467
16.4191
16.1273
15.5776
14.5156
12.9312
10.4777
7.23598
3.07276
-1.81445
-5.51898
-8.11144
-9.84348
-10.7128
-11.1379
-11.2537
-11.1598
-10.8805
-10.5173
-10.0719
-9.49622
-8.76956
-7.93559
-7.02991
-6.10297
-5.17787
-4.29104
-3.44923
-2.67591
-1.95798
-1.31637
-0.72822
-0.230238
15.8103
15.9781
16.3375
16.6567
16.9498
17.2648
17.551
17.7903
17.9123
17.8089
17.413
16.387
14.7212
11.7068
7.67329
1.64836
-5.48195
-9.85248
-11.8845
-12.9514
-13.3903
-13.3736
-13.0976
-12.6527
-12.0742
-11.56
-11.0487
-10.3921
-9.54642
-8.56777
-7.51441
-6.4473
-5.40114
-4.4044
-3.4844
-2.64948
-1.89457
-1.22706
-0.654797
-0.143516
16.4575
16.665
17.0653
17.4667
17.8529
18.3241
18.7571
19.2417
19.5616
19.7771
19.5704
18.7817
16.9881
13.6232
8.08437
-0.981924
-9.87723
-14.5728
-16.2189
-16.4718
-15.9612
-15.1511
-14.2913
-13.3997
-12.4962
-11.997
-11.5903
-10.9801
-10.1006
-9.03286
-7.87083
-6.69324
-5.55097
-4.46464
-3.47624
-2.58644
-1.8067
-1.11472
-0.565028
-0.0639284
17.0934
17.3069
17.7709
18.2419
18.7612
19.3614
20.0136
20.7333
21.3594
21.9649
22.1044
21.7303
20.0559
16.2597
8.94967
-3.3778
-16.4732
-19.9409
-19.6455
-18.5757
-17.2091
-15.8857
-14.6647
-13.3805
-12.2323
-11.972
-11.872
-11.3736
-10.4945
-9.3678
-8.12284
-6.85808
-5.63629
-4.49301
-3.45236
-2.51569
-1.70637
-0.9978
-0.46363
0.0156966
17.6899
17.8924
18.4138
18.9681
19.6083
20.3563
21.2419
22.2036
23.2284
24.2251
24.9361
25.2448
24.2789
20.9061
14.3155
-3.9033
-36.2528
-26.3686
-21.81
-19.5419
-17.669
-16.0989
-14.7921
-13.5781
-12.1322
-11.8248
-11.848
-11.4413
-10.6185
-9.49905
-8.23172
-6.9303
-5.66749
-4.4857
-3.40905
-2.44297
-1.60884
-0.885227
-0.360178
0.0918382
18.1984
18.405
18.9696
19.6114
20.354
21.2673
22.3385
23.5814
24.9413
26.3841
27.719
28.8342
28.916
28.1486
25.5472
18.6596
-11.3282
-11.3428
-11.5611
-11.2879
-10.5579
-9.48505
-8.23221
-6.92638
-5.6505
-4.45325
-3.35816
-2.37532
-1.51968
-0.782051
-0.258717
0.164644
18.5971
18.8176
19.415
20.1249
20.9668
22.0022
23.2511
24.7172
26.379
28.2003
30.0327
31.7061
32.741
33.4502
33.4421
32.4134
-10.4456
-10.6626
-11.0284
-10.9285
-10.3255
-9.35399
-8.15402
-6.87464
-5.6046
-4.40211
-3.29789
-2.307
-1.44091
-0.694369
-0.165204
0.232554
18.8835
19.1038
19.7155
20.4906
21.3996
22.5246
23.899
25.5278
27.4052
29.4929
31.6784
33.8012
35.5101
37.2743
38.9235
39.4554
-9.75135
-10.0333
-10.5218
-10.6011
-10.0977
-9.20731
-8.06703
-6.81461
-5.55721
-4.35512
-3.24637
-2.24807
-1.37328
-0.624978
-0.0906301
0.288258
19.0366
19.2476
19.8475
20.6822
21.6308
22.7965
24.2345
25.9469
27.9314
30.1455
32.4894
34.7827
36.8269
39.0352
41.1621
42.2602
-9.37067
-9.68295
-10.2275
-10.4237
-9.97562
-9.11199
-8.01607
-6.77533
-5.52859
-4.327
-3.21709
-2.21506
-1.33407
-0.584417
-0.0483593
0.320227
19.0366
19.2476
19.8475
20.6822
21.6308
22.7965
24.2345
25.9469
27.9314
30.1455
32.4894
34.7827
36.8269
39.0352
41.162
42.2602
-9.37062
-9.6829
-10.2275
-10.4236
-9.97561
-9.11198
-8.01607
-6.77534
-5.5286
-4.32701
-3.2171
-2.21507
-1.33408
-0.584426
-0.0483664
0.320223
18.8836
19.1039
19.7155
20.4906
21.3997
22.5247
23.899
25.5278
27.4052
29.4929
31.6784
33.8012
35.5101
37.2743
38.9235
39.4554
-9.75117
-10.0331
-10.5216
-10.601
-10.0977
-9.20729
-8.06703
-6.81463
-5.55723
-4.35515
-3.2464
-2.2481
-1.37331
-0.625005
-0.0906513
0.288245
18.5971
18.8176
19.415
20.1249
20.9668
22.0022
23.2511
24.7173
26.379
28.2003
30.0328
31.7062
32.7411
33.4503
33.4421
32.4132
-10.4454
-10.6624
-11.0283
-10.9284
-10.3254
-9.35398
-8.15404
-6.87468
-5.60464
-4.40215
-3.29794
-2.30705
-1.44096
-0.694414
-0.165238
0.232533
18.1984
18.405
18.9696
19.6115
20.3541
21.2674
22.3385
23.5815
24.9414
26.3842
27.7192
28.8343
28.9161
28.1487
25.5472
18.6593
-11.328
-11.3426
-11.561
-11.2879
-10.5579
-9.48508
-8.23227
-6.92645
-5.65058
-4.45332
-3.35823
-2.37539
-1.51974
-0.782107
-0.25876
0.164616
17.6899
17.8924
18.4139
18.9682
19.6084
20.3564
21.242
22.2037
23.2286
24.2253
24.9364
25.245
24.2792
20.9064
14.3156
-3.90421
-36.2556
-26.3711
-21.8121
-19.5436
-17.6703
-16.0998
-14.7927
-13.5784
-12.1322
-11.8248
-11.848
-11.4414
-10.6186
-9.49914
-8.23183
-6.93041
-5.6676
-4.48579
-3.40913
-2.44305
-1.60891
-0.885285
-0.360225
0.0918076
17.0935
17.3069
17.7709
18.242
18.7612
19.3615
20.0137
20.7335
21.3596
21.9652
22.1048
21.7307
20.0565
16.2603
8.95033
-3.3784
-16.4748
-19.9428
-19.6473
-18.5773
-17.2103
-15.8865
-14.6652
-13.3807
-12.2323
-11.972
-11.8721
-11.3738
-10.4946
-9.36797
-8.12301
-6.85822
-5.63642
-4.49311
-3.45246
-2.51576
-1.70644
-0.997853
-0.463672
0.0156694
16.4575
16.6651
17.0654
17.4668
17.853
18.3242
18.7572
19.2419
19.5618
19.7774
19.5709
18.7823
16.989
13.6242
8.08553
-0.981183
-9.87786
-14.5738
-16.2199
-16.473
-15.9622
-15.1518
-14.2918
-13.3999
-12.4962
-11.997
-11.5904
-10.9803
-10.1008
-9.03305
-7.871
-6.69339
-5.5511
-4.46475
-3.47632
-2.5865
-1.80675
-1.11476
-0.56506
-0.0639471
15.8103
15.9782
16.3376
16.6568
16.9499
17.2649
17.5512
17.7905
17.9126
17.8092
17.4136
16.3877
14.7223
11.7081
7.67466
1.64921
-5.4816
-9.85226
-11.8846
-12.9517
-13.3905
-13.3738
-13.0977
-12.6527
-12.0742
-11.56
-11.0488
-10.3922
-9.54655
-8.56791
-7.51454
-6.44742
-5.40124
-4.40447
-3.48445
-2.64953
-1.8946
-1.22709
-0.65481
-0.143523
15.1513
15.2848
15.6074
15.8571
16.0634
16.2525
16.4072
16.4672
16.4194
16.1277
15.5781
14.5162
12.9319
10.4788
7.237
3.07347
-1.81419
-5.51856
-8.11093
-9.84332
-10.7129
-11.1379
-11.2537
-11.1597
-10.8804
-10.5172
-10.0719
-9.49621
-8.76958
-7.93564
-7.02997
-6.10303
-5.17794
-4.2911
-3.44928
-2.67595
-1.958
-1.31638
-0.728217
-0.230244
14.497
14.6088
14.8952
15.088
15.2195
15.3127
15.3526
15.2907
15.1046
14.7104
14.0635
13.0394
11.5774
9.55547
6.97145
3.87304
0.547454
-2.53662
-4.96238
-6.64556
-7.98983
-8.83987
-9.26846
-9.39524
-9.33167
-9.13489
-8.81838
-8.38023
-7.81279
-7.1496
-6.41181
-5.64182
-4.85467
-4.08711
-3.33874
-2.64019
-1.97207
-1.36169
-0.780948
-0.288161
13.8661
13.9649
14.2192
14.3663
14.4359
14.4555
14.4068
14.2573
13.9783
13.5213
12.839
11.8648
10.5533
8.84854
6.76906
4.37401
1.81653
-0.56189
-2.52771
-4.30175
-5.59212
-6.45929
-7.08538
-7.52665
-7.71762
-7.70032
-7.53303
-7.22909
-6.80273
-6.29171
-5.70607
-5.08311
-4.43028
-3.78257
-3.13376
-2.51846
-1.91041
-1.34579
-0.786641
-0.312455
13.2709
13.3647
13.5931
13.7029
13.7249
13.6877
13.5758
13.3628
13.0276
12.534
11.8519
10.9349
9.76337
8.30766
6.59165
4.67244
2.64307
0.709952
-1.01679
-2.44875
-3.62176
-4.62091
-5.36358
-5.84149
-6.09359
-6.20204
-6.17629
-6.03726
-5.7839
-5.42988
-4.98955
-4.50095
-3.96987
-3.43026
-2.8745
-2.33627
-1.79133
-1.27583
-0.754351
-0.306321
12.7245
12.8176
13.0255
13.1061
13.0924
13.0133
12.8568
12.6012
12.2326
11.724
11.057
10.2016
9.14856
7.88839
6.43981
4.85325
3.19367
1.57654
0.0970199
-1.19687
-2.31168
-3.20841
-3.89092
-4.40423
-4.77747
-5.00374
-5.0797
-5.02908
-4.86102
-4.60404
-4.27214
-3.89571
-3.47174
-3.03139
-2.56323
-2.10187
-1.6224
-1.16279
-0.691581
-0.280388
12.2375
12.3293
12.5217
12.5808
12.5407
12.4321
12.2447
11.9626
11.5754
11.066
10.4207
9.62415
8.6697
7.56096
6.31143
4.96308
3.56207
2.18204
0.889464
-0.277332
-1.2926
-2.14818
-2.84247
-3.38915
-3.78013
-4.02897
-4.14882
-4.16414
-4.08123
-3.92227
-3.68952
-3.40288
-3.06168
-2.69572
-2.29616
-1.89379
-1.4695
-1.05507
-0.628071
-0.249989
11.8152
11.9044
12.086
12.1296
12.0708
11.9418
11.7341
11.4364
11.0408
10.5375
9.91675
9.17145
8.29845
7.30518
6.20482
5.02867
3.81346
2.60775
1.46012
0.40448
-0.535713
-1.35063
-2.02876
-2.57331
-2.98424
-3.27583
-3.45146
-3.52789
-3.50658
-3.40805
-3.23188
-3.00316
-2.72059
-2.41101
-2.06537
-1.71145
-1.33291
-0.958376
-0.570946
-0.22447
11.46
11.547
11.7211
11.7538
11.6822
11.5394
11.3192
11.0127
10.6154
10.121
9.52418
8.82151
8.01362
7.10794
6.11826
5.06752
3.98634
2.90831
1.87148
0.902592
0.0252188
-0.749033
-1.40754
-1.95168
-2.37845
-2.69603
-2.90458
-3.0186
-3.03997
-2.98742
-2.8615
-2.68423
-2.45237
-2.18975
-1.88844
-1.57382
-1.23227
-0.889851
-0.532404
-0.209867
11.1738
11.2597
11.4285
11.4538
11.3736
11.222
10.9942
10.6836
10.2877
9.80287
9.22684
8.55822
7.80025
6.95974
6.05045
5.09011
4.10442
3.11872
2.16356
1.26116
0.433844
-0.30694
-0.948132
-1.48835
-1.92194
-2.25528
-2.48735
-2.63086
-2.68615
-2.6701
-2.58184
-2.44188
-2.24618
-2.01785
-1.74915
-1.46412
-1.15092
-0.834047
-0.500104
-0.197176
10.9581
11.0435
11.2088
11.2294
11.1437
10.9866
10.7548
10.4425
10.0492
9.57282
9.01308
8.36995
7.64803
6.85387
6.00047
5.10285
4.18274
3.2612
2.36341
1.50916
0.718466
0.00346523
-0.623377
-1.15819
-1.59555
-1.93899
-2.18769
-2.35093
-2.42968
-2.43813
-2.37598
-2.26299
-2.09332
-1.89033
-1.64558
-1.38307
-1.0909
-0.79331
-0.476805
-0.188122
10.814
10.8992
11.0621
11.0803
10.991
10.831
10.5971
10.2844
9.89353
9.42341
8.87479
8.24861
7.55006
6.78562
5.96757
5.10947
4.23055
3.34946
2.48826
1.66509
0.898577
0.200886
-0.415666
-0.946372
-1.38525
-1.73464
-1.99304
-2.16864
-2.26197
-2.28591
-2.2402
-2.14607
-1.99367
-1.80718
-1.5773
-1.32961
-1.05103
-0.766043
-0.461147
-0.182003
10.741
10.8273
10.9888
11.0065
10.9149
10.7535
10.5188
10.2062
9.81668
9.34989
8.80686
8.18922
7.50209
6.75228
5.95126
5.11241
4.25321
3.39189
2.54824
1.74062
0.985698
0.297157
-0.314739
-0.842424
-1.28278
-1.63359
-1.89827
-2.07773
-2.18119
-2.20914
-2.17576
-2.09035
-1.94391
-1.76545
-1.54265
-1.30251
-1.0308
-0.752213
-0.453237
-0.179263
10.8272
10.8857
10.9682
10.958
10.8581
10.6952
10.4614
10.1516
9.76567
9.30296
8.76405
8.15081
7.46818
6.72334
5.92737
5.09402
4.2403
3.38478
2.54668
1.74466
0.994789
0.311072
-0.296729
-0.82075
-1.25817
-1.60666
-1.86953
-2.04801
-2.15058
-2.17895
-2.14684
-2.05941
-1.91395
-1.73693
-1.5168
-1.27736
-1.00837
-0.73204
-0.438088
-0.173797
10.8991
10.9585
11.0402
11.0306
10.9347
10.7727
10.5396
10.2297
9.8424
9.37633
8.83187
8.21008
7.5161
6.75661
5.94369
5.0911
4.21778
3.34253
2.487
1.66951
0.908115
0.215371
-0.397107
-0.923935
-1.36004
-1.7067
-1.96369
-2.13765
-2.23082
-2.2543
-2.20964
-2.11522
-1.96345
-1.77733
-1.55023
-1.30339
-1.02743
-0.745018
-0.445071
-0.175564
11.0424
11.1028
11.1868
11.1791
11.0873
10.9283
10.6971
10.3876
9.99796
9.52562
8.97003
8.33125
7.61392
6.8247
5.97646
5.0844
4.16997
3.2544
2.36243
1.51403
0.728625
0.0187355
-0.603841
-1.13466
-1.56904
-1.90963
-2.15669
-2.31815
-2.3966
-2.40415
-2.34296
-2.22965
-2.06154
-1.85867
-1.61632
-1.35489
-1.0652
-0.770501
-0.459043
-0.180464
11.2573
11.3185
11.406
11.403
11.3168
11.1634
10.9363
10.6285
10.2363
9.75543
9.18351
8.51918
7.76583
6.93021
6.02615
5.07141
4.09152
3.11198
2.16285
1.26659
0.444719
-0.290618
-0.927426
-1.46323
-1.89371
-2.22386
-2.4543
-2.59563
-2.65049
-2.63313
-2.5456
-2.40521
-2.21126
-1.98317
-1.71681
-1.43316
-1.12244
-0.808979
-0.480206
-0.187927
11.5425
11.6052
11.698
11.7024
11.6249
11.4805
11.261
10.9574
10.5637
10.0733
9.48045
8.78198
7.97871
7.07772
6.09336
5.04807
3.97287
2.90109
1.87064
0.908158
0.0366331
-0.73179
-1.38584
-1.92525
-2.34828
-2.6621
-2.86873
-2.98044
-3.00132
-2.94742
-2.82218
-2.64425
-2.41385
-2.15134
-1.85218
-1.53883
-1.1999
-0.861516
-0.509449
-0.198474
11.8967
11.9616
12.0621
12.0775
12.013
11.8825
11.6756
11.3808
10.9888
10.4894
9.87247
9.13124
8.26274
7.27378
6.17881
5.00759
3.79871
2.59896
1.45846
0.409138
-0.524805
-1.33302
-2.00629
-2.54602
-2.95344
-3.24062
-3.4131
-3.48556
-3.4626
-3.36171
-3.18685
-2.95877
-2.67902
-2.37031
-2.02735
-1.6749
-1.29912
-0.928886
-0.54675
-0.212279
12.3177
12.3855
12.4969
12.528
12.4823
12.3724
12.1858
11.9068
11.5229
11.0174
10.3756
9.583
8.63265
7.52769
6.28335
4.93899
3.54454
2.16972
0.885087
-0.274669
-1.28392
-2.13334
-2.82186
-3.35885
-3.74625
-3.99526
-4.11593
-4.12835
-4.04265
-3.87849
-3.64194
-3.35283
-3.01345
-2.64854
-2.25233
-1.85225
-1.43168
-1.02269
-0.602328
-0.237822
12.8024
12.8733
12.9996
13.0527
13.0331
12.9535
12.7972
12.5454
12.1793
11.6749
11.0108
10.1593
9.10939
7.85242
6.40796
4.82406
3.17035
1.55688
0.0867858
-1.20365
-2.30284
-3.20147
-3.89015
-4.39344
-4.74338
-4.95352
-5.02723
-4.9754
-4.81053
-4.55787
-4.23189
-3.85678
-3.43631
-2.99628
-2.53177
-2.0715
-1.59618
-1.13988
-0.672345
-0.274126
13.3455
13.4205
13.5656
13.6495
13.6642
13.6286
13.5147
13.3079
12.9726
12.4853
11.8036
10.8914
9.72104
8.2676
6.55356
4.6343
2.60894
0.671401
-1.03282
-2.48251
-3.64604
-4.59426
-5.33014
-5.81584
-6.07723
-6.17548
-6.14121
-5.98664
-5.72414
-5.37102
-4.93757
-4.45475
-3.93165
-3.39789
-2.84911
-2.31627
-1.77589
-1.26843
-0.749524
-0.315632
13.9378
14.0203
14.19
14.3128
14.3734
14.3974
14.3432
14.2047
13.9198
13.4754
12.7862
11.8221
10.505
8.80356
6.72139
4.32098
1.75482
-0.64151
-2.5979
-4.29027
-5.60958
-6.48521
-7.08798
-7.48361
-7.66442
-7.65226
-7.48567
-7.19596
-6.78702
-6.2867
-5.71199
-5.09542
-4.45041
-3.80586
-3.16256
-2.54997
-1.94356
-1.38379
-0.815899
-0.34555
14.5677
14.6621
14.8652
15.0326
15.157
15.2538
15.2881
15.2391
15.0428
14.6686
14.0035
13.0018
11.5189
9.50786
6.90961
3.80377
0.385481
-2.60782
-5.05279
-6.7295
-7.96346
-8.81924
-9.26612
-9.44276
-9.40299
-9.20335
-8.88211
-8.44171
-7.87722
-7.2188
-6.48868
-5.72303
-4.94233
-4.17681
-3.43026
-2.73088
-2.05931
-1.45109
-0.850143
-0.345128
15.2225
15.3342
15.578
15.7975
16.004
16.1895
16.3464
16.4122
16.3595
16.0868
15.5131
14.4862
12.8597
10.4357
7.16534
2.91684
-2.00724
-5.73455
-8.16392
-9.87134
-10.835
-11.3263
-11.4802
-11.4054
-11.1162
-10.7116
-10.2291
-9.63138
-8.90069
-8.06901
-7.17103
-6.24872
-5.32798
-4.44173
-3.59866
-2.82147
-2.09627
-1.44924
-0.834817
-0.303335
15.885
16.0223
16.3082
16.5944
16.8927
17.1959
17.4973
17.7268
17.8636
17.7616
17.3528
16.3656
14.6347
11.7119
7.60185
1.20425
-5.70972
-9.97742
-12.1085
-13.2779
-13.7708
-13.8023
-13.5434
-13.1001
-12.4633
-11.8251
-11.2065
-10.4941
-9.63862
-8.67207
-7.63998
-6.58972
-5.55772
-4.5729
-3.65469
-2.81541
-2.05614
-1.37623
-0.77671
-0.223858
16.5375
16.7049
17.0342
17.4018
17.7976
18.2492
18.7118
19.1665
19.5316
19.7106
19.5403
18.7543
16.928
13.7009
7.95487
-1.95204
-10.4443
-14.9423
-16.4564
-16.7875
-16.4122
-15.6959
-14.8511
-13.9369
-12.8875
-12.1228
-11.5442
-10.8886
-10.0383
-9.02933
-7.92692
-6.7936
-5.67898
-4.62688
-3.64913
-2.76058
-1.97625
-1.27429
-0.701616
-0.132241
17.17
17.3498
17.7346
18.1831
18.6954
19.3
19.9578
20.6713
21.3305
21.8907
22.1115
21.6928
20.1178
16.5292
8.55138
-4.9661
-18.7917
-20.5987
-19.9487
-18.9051
-17.5764
-16.246
-15.0054
-13.7142
-12.3834
-11.7958
-11.5559
-11.1157
-10.3345
-9.30971
-8.15041
-6.94758
-5.76823
-4.65342
-3.62936
-2.70268
-1.89499
-1.17711
-0.620631
-0.0512255
17.7567
17.9395
18.3761
18.9126
19.5389
20.3049
21.1715
22.1648
23.1661
24.2001
24.9369
25.2779
24.4833
21.375
12.9524
-5.70997
-38.9983
-27.1512
-22.1837
-19.8657
-17.8906
-16.2604
-14.8982
-13.6796
-12.0741
-11.5577
-11.6001
-11.2684
-10.5265
-9.48834
-8.2892
-7.04092
-5.81742
-4.66321
-3.60647
-2.65408
-1.82875
-1.10046
-0.557106
0.00946358
18.2612
18.4504
18.9349
19.5521
20.2896
21.2064
22.2782
23.533
24.8962
26.3757
27.7462
28.9692
29.4105
28.6235
24.8822
19.6918
-11.3556
-11.1028
-11.3806
-11.183
-10.5332
-9.53407
-8.34358
-7.08581
-5.84238
-4.66377
-3.58418
-2.61519
-1.77814
-1.04511
-0.514211
0.048043
18.6595
18.8583
19.3834
20.0658
20.9026
21.9408
23.1931
24.6673
26.3447
28.1934
30.099
31.9118
33.2956
33.8289
33.1438
32.5174
-10.3873
-10.4766
-10.9272
-10.8999
-10.3776
-9.46836
-8.32573
-7.09324
-5.85719
-4.67677
-3.58582
-2.60089
-1.74431
-1.00704
-0.484759
0.0729598
18.939
19.1406
19.692
20.4319
21.3334
22.4651
23.8396
25.4829
27.3699
29.5
31.7495
34.0344
36.0063
37.4926
38.4504
39.306
-9.67898
-9.91601
-10.4992
-10.6184
-10.1908
-9.37479
-8.28356
-7.08038
-5.8573
-4.67955
-3.58678
-2.5983
-1.73109
-0.984113
-0.461941
0.0913969
19.079
19.2752
19.848
20.6235
21.5614
22.7359
24.1778
25.9024
27.9033
30.1613
32.5831
35.0552
37.3206
39.2423
40.6961
42.0522
-9.30105
-9.59708
-10.2467
-10.4566
-10.0754
-9.30891
-8.25401
-7.06749
-5.85472
-4.67895
-3.58617
-2.59619
-1.72581
-0.973902
-0.448118
0.10223
19.079
19.2752
19.848
20.6235
21.5614
22.7359
24.1778
25.9024
27.9033
30.1613
32.5831
35.0552
37.3206
39.2423
40.6961
42.0521
-9.30099
-9.59704
-10.2467
-10.4565
-10.0754
-9.30891
-8.25401
-7.0675
-5.85472
-4.67896
-3.58618
-2.5962
-1.72582
-0.973911
-0.448124
0.102227
18.939
19.1406
19.6921
20.4319
21.3334
22.4652
23.8397
25.483
27.3699
29.5001
31.7495
34.0344
36.0063
37.4926
38.4505
39.3059
-9.67881
-9.91587
-10.4991
-10.6184
-10.1907
-9.37478
-8.28356
-7.0804
-5.85732
-4.67957
-3.5868
-2.59833
-1.73112
-0.984137
-0.461958
0.0913878
18.6595
18.8583
19.3834
20.0659
20.9026
21.9408
23.1932
24.6674
26.3448
28.1934
30.099
31.9119
33.2957
33.829
33.1438
32.5173
-10.387
-10.4765
-10.927
-10.8998
-10.3775
-9.46836
-8.32575
-7.09327
-5.85723
-4.67681
-3.58586
-2.60093
-1.74434
-1.00707
-0.484782
0.0729467
18.2612
18.4505
18.935
19.5522
20.2897
21.2065
22.2783
23.5331
24.8964
26.3758
27.7464
28.9693
29.4106
28.6237
24.8824
19.6915
-11.3554
-11.1026
-11.3805
-11.1829
-10.5332
-9.5341
-8.34362
-7.08587
-5.84243
-4.66382
-3.58422
-2.61523
-1.77817
-1.04513
-0.514233
0.0480312
17.7568
17.9395
18.3761
18.9126
19.539
20.305
21.1716
22.1649
23.1662
24.2003
24.9371
25.2781
24.4835
21.3753
12.9527
-5.71096
-39.0012
-27.1536
-22.1855
-19.8672
-17.8916
-16.2611
-14.8986
-13.6797
-12.074
-11.5577
-11.6001
-11.2684
-10.5265
-9.48841
-8.28927
-7.04099
-5.81748
-4.66326
-3.60651
-2.65412
-1.82878
-1.10048
-0.557119
0.00945915
17.17
17.3499
17.7346
18.1832
18.6955
19.3002
19.958
20.6715
21.3307
21.891
22.1118
21.6933
20.1184
16.5299
8.55208
-4.96682
-18.7932
-20.6003
-19.9499
-18.9061
-17.577
-16.2463
-15.0055
-13.714
-12.3831
-11.7956
-11.5559
-11.1158
-10.3346
-9.30981
-8.1505
-6.94766
-5.76829
-4.65347
-3.6294
-2.7027
-1.89501
-1.17711
-0.620631
-0.0512206
16.5376
16.7049
17.0342
17.4019
17.7977
18.2493
18.712
19.1668
19.5318
19.711
19.5409
18.755
16.9292
13.7024
7.95626
-1.95143
-10.4446
-14.9425
-16.4567
-16.7879
-16.4126
-15.6961
-14.8512
-13.9368
-12.8872
-12.1226
-11.5441
-10.8886
-10.0383
-9.02939
-7.92698
-6.79366
-5.67903
-4.62691
-3.64915
-2.76059
-1.97626
-1.27429
-0.701609
-0.132231
15.885
16.0224
16.3083
16.5945
16.8929
17.196
17.4975
17.7271
17.864
17.762
17.3534
16.3664
14.6359
11.7137
7.60377
1.20561
-5.70939
-9.97696
-12.1079
-13.2776
-13.7707
-13.8021
-13.5433
-13.0999
-12.4631
-11.825
-11.2064
-10.4941
-9.63864
-8.67212
-7.64003
-6.58977
-5.55777
-4.57293
-3.65471
-2.81542
-2.05614
-1.37622
-0.776702
-0.223851
15.2225
15.3343
15.578
15.7975
16.0041
16.1897
16.3466
16.4124
16.3598
16.0871
15.5136
14.4868
12.8606
10.437
7.16659
2.91779
-2.00688
-5.7336
-8.1633
-9.87125
-10.8351
-11.3263
-11.4802
-11.4053
-11.1161
-10.7116
-10.2291
-9.63145
-8.90079
-8.06913
-7.17116
-6.24884
-5.32809
-4.44182
-3.59874
-2.82154
-2.09631
-1.44927
-0.834837
-0.303345
14.5677
14.6622
14.8652
15.0326
15.1571
15.2539
15.2883
15.2393
15.043
14.6689
14.0039
13.0022
11.5194
9.50838
6.91004
3.80396
0.385379
-2.60793
-5.0531
-6.72952
-7.96351
-8.81937
-9.26654
-9.44308
-9.40323
-9.20357
-8.88233
-8.44194
-7.87745
-7.21903
-6.48892
-5.72326
-4.94255
-4.17702
-3.43044
-2.73104
-2.05944
-1.45119
-0.850218
-0.34517
13.9379
14.0203
14.19
14.3129
14.3734
14.3975
14.3433
14.2048
13.9199
13.4756
12.7864
11.8224
10.5052
8.8037
6.7214
4.32072
1.75446
-0.641887
-2.59826
-4.29072
-5.61006
-6.48577
-7.08824
-7.48386
-7.66473
-7.65262
-7.48603
-7.19634
-6.78741
-6.28709
-5.71235
-5.09577
-4.45074
-3.80616
-3.16283
-2.55022
-1.94379
-1.38396
-0.816039
-0.345624
13.3456
13.4205
13.5657
13.6496
13.6642
13.6286
13.5148
13.308
12.9727
12.4854
11.8037
10.8915
9.72106
8.26756
6.5534
4.63399
2.60856
0.671007
-1.03323
-2.48298
-3.64658
-4.59477
-5.33057
-5.81632
-6.07776
-6.17597
-6.14164
-5.98702
-5.72451
-5.3714
-4.93795
-4.45512
-3.93199
-3.39821
-2.8494
-2.31653
-1.77612
-1.26861
-0.749666
-0.3157
12.8024
12.8733
12.9996
13.0528
13.0331
12.9535
12.7973
12.5454
12.1794
11.675
11.0108
10.1593
9.10931
7.85227
6.40772
4.82372
3.16995
1.55648
0.0863793
-1.20406
-2.30323
-3.20184
-3.89052
-4.39383
-4.74375
-4.95384
-5.02756
-4.97576
-4.81089
-4.55821
-4.2322
-3.85708
-3.43659
-2.99654
-2.53201
-2.07171
-1.59636
-1.14002
-0.672445
-0.274169
12.3177
12.3855
12.4969
12.528
12.4823
12.3724
12.1858
11.9068
11.5229
11.0173
10.3755
9.5829
8.63249
7.52748
6.28307
4.93864
3.54414
2.16932
0.88469
-0.275053
-1.28428
-2.13368
-2.82218
-3.35913
-3.7465
-3.9955
-4.11615
-4.12856
-4.04284
-3.87865
-3.6421
-3.35297
-3.01358
-2.64866
-2.25243
-1.85234
-1.43175
-1.02273
-0.602356
-0.237829
11.8967
11.9616
12.0621
12.0775
12.013
11.8825
11.6755
11.3808
10.9887
10.4893
9.87235
9.13109
8.26254
7.27353
6.1785
5.00723
3.79831
2.59856
1.45806
0.408751
-0.525172
-1.33336
-2.00659
-2.54629
-2.95368
-3.24083
-3.41328
-3.48572
-3.46274
-3.36183
-3.18694
-2.95884
-2.67907
-2.37034
-2.02737
-1.6749
-1.2991
-0.928858
-0.546722
-0.212258
11.5425
11.6052
11.698
11.7024
11.6249
11.4805
11.2609
10.9573
10.5636
10.0732
9.4803
8.7818
7.97848
7.07744
6.09304
5.0477
3.97248
2.90069
1.87024
0.907768
0.0362619
-0.732137
-1.38615
-1.92554
-2.34853
-2.66232
-2.86892
-2.9806
-3.00145
-2.94753
-2.82226
-2.64431
-2.41389
-2.15136
-1.85219
-1.53882
-1.19988
-0.861481
-0.509416
-0.198453
11.2573
11.3185
11.406
11.4029
11.3167
11.1633
10.9363
10.6284
10.2362
9.75529
9.18334
8.51898
7.76558
6.92992
6.02582
5.07104
4.09113
3.11158
2.16244
1.2662
0.444341
-0.290975
-0.927756
-1.46353
-1.89398
-2.2241
-2.45451
-2.59581
-2.65064
-2.63325
-2.54569
-2.40528
-2.21131
-1.9832
-1.71682
-1.43315
-1.12243
-0.808953
-0.480181
-0.187914
11.0424
11.1027
11.1867
11.1791
11.0872
10.9282
10.697
10.3875
9.99783
9.52547
8.96984
8.33103
7.61366
6.8244
5.97614
5.08404
4.16958
3.254
2.36203
1.51363
0.728242
0.0183714
-0.604181
-1.13497
-1.56932
-1.90989
-2.15691
-2.31835
-2.39677
-2.40429
-2.34308
-2.22974
-2.0616
-1.85871
-1.61635
-1.3549
-1.0652
-0.770488
-0.459033
-0.180461
10.899
10.9584
11.0402
11.0306
10.9346
10.7726
10.5395
10.2295
9.84226
9.37617
8.83168
8.20985
7.51583
6.75631
5.94336
5.09074
4.2174
3.34214
2.4866
1.66911
0.90773
0.215002
-0.397453
-0.924257
-1.36033
-1.70696
-1.96392
-2.13786
-2.231
-2.25445
-2.20977
-2.11532
-1.96353
-1.77738
-1.55026
-1.30341
-1.02744
-0.745015
-0.445068
-0.175564
10.8271
10.8856
10.9681
10.9579
10.858
10.6951
10.4613
10.1515
9.76552
9.30279
8.76385
8.15058
7.46792
6.72304
5.92704
5.09366
4.23992
3.38439
2.54629
1.74426
0.994402
0.310702
-0.297079
-0.821076
-1.25847
-1.60693
-1.86978
-2.04822
-2.15077
-2.1791
-2.14697
-2.05952
-1.91403
-1.73699
-1.51684
-1.27739
-1.00839
-0.732047
-0.438091
-0.1738
10.9512
10.9736
11.0032
10.9735
10.8633
10.6911
10.451
10.1363
9.7464
9.28068
8.73944
8.12461
7.44131
6.69677
5.90217
5.07113
4.22074
3.36923
2.53582
1.73868
0.993965
0.315096
-0.287925
-0.807849
-1.24141
-1.58697
-1.84715
-2.02404
-2.12505
-2.15316
-2.12083
-2.03311
-1.88893
-1.71261
-1.49547
-1.25833
-0.991455
-0.72043
-0.429108
-0.174553
11.0218
11.0466
11.0748
11.0449
10.9395
10.7688
10.5288
10.2139
9.82252
9.35338
8.80645
8.18302
7.48823
6.7291
5.91745
5.06729
4.19722
3.32619
2.47531
1.66295
0.906652
0.219021
-0.388782
-0.911229
-1.34363
-1.687
-1.94156
-2.11346
-2.20564
-2.22826
-2.18415
-2.08883
-1.93837
-1.7533
-1.52849
-1.28422
-1.01043
-0.73353
-0.436029
-0.175869
11.1638
11.1901
11.2206
11.1921
11.0908
10.9232
10.6852
10.3705
9.97673
9.50119
8.94296
8.30239
7.58413
6.79518
5.94818
5.05859
4.14747
3.23627
2.34915
1.50607
0.725929
0.0213388
-0.596414
-1.1227
-1.55324
-1.89039
-2.13483
-2.29409
-2.37133
-2.3779
-2.31689
-2.20342
-2.03655
-1.83485
-1.59447
-1.33577
-1.04826
-0.759298
-0.450099
-0.180838
11.3769
11.4044
11.4382
11.4142
11.3187
11.1566
10.9226
10.6095
10.213
9.72864
9.15387
8.48749
7.73306
6.89757
5.99471
5.04252
4.06607
3.09117
2.14717
1.25661
0.440237
-0.289479
-0.921277
-1.45222
-1.87867
-2.2051
-2.43283
-2.57166
-2.62515
-2.60655
-2.51905
-2.37869
-2.18591
-1.95913
-1.69474
-1.41406
-1.1056
-0.798272
-0.471541
-0.188626
11.6598
11.6889
11.7281
11.7114
11.6247
11.4714
11.2448
10.9357
10.5375
10.0432
9.44727
8.74638
7.94195
7.04077
6.05768
5.01496
3.94349
2.87676
1.85197
0.895651
0.0301121
-0.732284
-1.3811
-1.91535
-2.33386
-2.64345
-2.84693
-2.9559
-2.97533
-2.92027
-2.79511
-2.61724
-2.38798
-2.12677
-1.82956
-1.51929
-1.18271
-0.850967
-0.500736
-0.199588
12.0112
12.0427
12.0895
12.0838
12.01
11.8705
11.6563
11.3558
10.959
10.4551
9.8348
9.09061
8.22089
7.23133
6.13786
4.96917
3.76451
2.57051
1.43677
0.394291
-0.532917
-1.33419
-2.00155
-2.53585
-2.9387
-3.22117
-3.3895
-3.45795
-3.43254
-3.32992
-3.15539
-2.92802
-2.65013
-2.34326
-2.00269
-1.65371
-1.2805
-0.91748
-0.537088
-0.213691
12.4288
12.4635
12.5211
12.5309
12.476
12.357
12.1627
11.8778
11.4885
10.9781
10.3323
9.53644
8.58471
7.47876
6.23638
4.89458
3.5053
2.13773
0.861716
-0.289436
-1.29073
-2.13271
-2.81395
-3.34267
-3.72364
-3.96803
-4.08508
-4.09409
-4.00581
-3.83902
-3.60085
-3.31131
-2.97322
-2.61018
-2.21682
-1.82116
-1.40401
-1.00372
-0.586247
-0.236361
12.9093
12.948
13.0203
13.0518
13.0231
12.9339
12.7697
12.5113
12.1396
11.6299
10.9611
10.1063
9.05457
7.79689
6.35511
4.77447
3.12744
1.52511
0.0670535
-1.21253
-2.2978
-3.18635
-3.87046
-4.36601
-4.70262
-4.89923
-4.96164
-4.90247
-4.73584
-4.48541
-4.16232
-3.79013
-3.37362
-2.93774
-2.47709
-2.02201
-1.55016
-1.10472
-0.642569
-0.265797
13.4474
13.4914
13.5828
13.6437
13.6503
13.6036
13.483
13.2674
12.9279
12.4328
11.748
10.8311
9.66044
8.20664
6.49781
4.58343
2.56925
0.651035
-1.03204
-2.46802
-3.61596