/*--------------------------------*- C++ -*----------------------------------*\
| =========                 |                                                 |
| \\      /  F ield         | OpenFOAM: The Open Source CFD Toolbox           |
|  \\    /   O peration     | Version:  2412                                  |
|   \\  /    A nd           | Website:  www.openfoam.com                      |
|    \\/     M anipulation  |                                                 |
\*---------------------------------------------------------------------------*/
FoamFile
{
    version     2.0;
    format      ascii;
    arch        "LSB;label=32;scalar=64";
    class       surfaceScalarField;
    location    "1000";
    object      phi;
}
// * * * * * * * * * * * * * * * * * * * * * * * * * * * * * * * * * * * * * //

dimensions      [0 3 -1 0 0 0 0];

oriented        oriented;

internalField   nonuniform List<scalar> 
137920
(
6.29032
-0.00917017
-0.0304086
6.37864
-0.0262144
-0.0620997
6.48622
-0.0437284
-0.0638581
6.6065
-0.0604524
-0.0598267
6.73726
-0.0776988
-0.0530595
6.87736
-0.0949794
-0.0451221
7.026
-0.112556
-0.036078
7.18275
-0.1301
-0.0266514
7.34749
-0.147768
-0.0169721
7.51972
-0.164972
-0.00726178
7.69896
-0.181646
0.00240808
7.88404
-0.197043
0.011963
8.0737
-0.21087
0.0212141
8.26588
-0.222344
0.0301625
8.45849
-0.231073
0.0384664
8.64872
-0.236535
0.0463018
8.83397
-0.238408
0.0531572
9.0113
-0.236785
0.0594518
9.17832
-0.231508
0.0644886
9.33275
-0.223446
0.0690211
9.47305
-0.21242
0.0721219
9.59801
-0.199898
0.0749369
9.70706
-0.185281
0.0762271
9.80007
-0.170582
0.0775762
9.87718
-0.154452
0.0773369
9.9392
-0.139598
0.0775816
9.98657
-0.123544
0.076171
10.021
-0.110084
0.075685
10.0426
-0.0950976
0.0734696
10.0542
-0.0842131
0.0726227
10.0539
-0.0693946
0.0696744
10.0475
-0.0626308
0.0689992
10.033
-0.0516956
0.0662515
10.0133
-0.0452817
0.0649555
9.98853
-0.0380122
0.0627952
9.95951
-0.0330744
0.0620931
9.92792
-0.028479
0.0600713
9.89296
-0.0254444
0.0603961
9.85693
-0.0230317
0.0590663
-0.0215127
0.061939
6.29029
-0.0180966
-0.0302384
6.37867
-0.0525743
-0.0620116
6.486
-0.0871056
-0.0639613
6.60568
-0.121024
-0.0591037
6.73603
-0.155467
-0.0525778
6.87585
-0.190163
-0.0446372
7.02425
-0.22555
-0.0354118
7.1811
-0.261027
-0.025916
7.34615
-0.296836
-0.0159898
7.51921
-0.331833
-0.00619614
7.69968
-0.36591
0.00379506
7.88663
-0.39743
0.0134406
8.07863
-0.425962
0.0230881
8.27376
-0.449587
0.0321182
8.46967
-0.467878
0.0408951
8.66351
-0.47916
0.0487845
8.85237
-0.483451
0.0561769
9.03317
-0.480049
0.0624627
9.20327
-0.469689
0.0680867
9.36028
-0.452958
0.0725048
9.5026
-0.430986
0.0762387
9.62896
-0.405059
0.0788056
9.73892
-0.376023
0.0807809
9.83217
-0.345565
0.08173
9.9093
-0.313817
0.0822343
9.97059
-0.282798
0.0819123
10.0174
-0.251663
0.0812852
10.0503
-0.223013
0.0800996
10.0712
-0.194673
0.0786815
10.0801
-0.170278
0.0770922
10.0811
-0.145731
0.0753439
10.0716
-0.126697
0.0735358
10.0561
-0.107435
0.0712574
10.0342
-0.0930619
0.0696831
10.008
-0.0792011
0.0673972
9.97727
-0.0689616
0.0666302
9.94429
-0.0599564
0.0644566
9.90787
-0.0537228
0.0647053
9.87044
-0.0489688
0.0633616
-0.045653
0.0660197
6.29026
-0.0269242
-0.0300611
6.37818
-0.0787904
-0.0616987
6.48497
-0.130194
-0.0637026
6.6038
-0.181376
-0.0584824
6.73329
-0.233141
-0.0518065
6.87244
-0.285654
-0.0436616
7.02035
-0.33925
-0.0342068
7.17722
-0.393445
-0.0244586
7.34287
-0.448236
-0.0142458
7.51745
-0.502293
-0.00412269
7.70038
-0.555106
0.00627129
7.891
-0.604405
0.0163451
8.08781
-0.649279
0.0265165
8.28891
-0.686752
0.0360577
8.49165
-0.716072
0.0454526
8.69293
-0.734338
0.0539038
8.8893
-0.741773
0.0619515
9.07727
-0.736818
0.0688023
9.25369
-0.721168
0.0750537
9.41603
-0.695277
0.0799751
9.56246
-0.661672
0.0842613
9.69178
-0.621618
0.0872419
9.80345
-0.577362
0.0896613
9.89745
-0.530471
0.0909097
9.97429
-0.482402
0.0917452
10.0346
-0.43471
0.091591
10.0797
-0.387932
0.0911724
10.1104
-0.343719
0.0900081
10.1287
-0.301623
0.0886797
10.135
-0.263552
0.0869542
10.1323
-0.228092
0.0850354
10.12
-0.197518
0.0831907
10.1015
-0.16977
0.0808123
10.0761
-0.146888
0.079248
10.0469
-0.126711
0.0766645
10.013
-0.110887
0.0758166
9.97722
-0.0975503
0.073382
9.93805
-0.0880181
0.0734622
9.89787
-0.0808174
0.0720265
-0.0754234
0.0746113
6.29022
-0.0356001
-0.0298842
6.37744
-0.104703
-0.0613152
6.48321
-0.172817
-0.0631434
6.60073
-0.241322
-0.0575716
6.72875
-0.310497
-0.0506616
6.86662
-0.381345
-0.0421869
7.01352
-0.453693
-0.0324523
7.17014
-0.527824
-0.0222452
7.33641
-0.602866
-0.011635
7.51303
-0.677995
-0.000919178
7.69949
-0.751605
0.0100397
7.89559
-0.821353
0.0208491
8.0997
-0.885164
0.0317701
8.31006
-0.939259
0.0421547
8.52352
-0.982011
0.0524712
8.7365
-1.00914
0.061826
8.94481
-1.02097
0.0708905
9.14406
-1.01469
0.0786291
9.33051
-0.993495
0.0858758
9.50114
-0.95748
0.091575
9.65402
-0.911293
0.0967413
9.78784
-0.855798
0.100361
9.90231
-0.795322
0.10349
9.99741
-0.730783
0.10521
10.074
-0.665518
0.106533
10.1328
-0.600168
0.106677
10.1754
-0.537123
0.106528
10.2029
-0.476681
0.105515
10.2174
-0.420285
0.104189
10.2195
-0.368138
0.102446
10.2121
-0.320929
0.100252
10.1951
-0.278857
0.0982829
10.1719
-0.242104
0.0955544
10.1418
-0.210577
0.0938426
10.1082
-0.183963
0.090847
10.0697
-0.162245
0.0898075
10.0298
-0.144631
0.0869869
9.98656
-0.131617
0.0868498
9.94244
-0.121877
0.0851825
-0.114302
0.0874828
6.2901
-0.0440705
-0.0297027
6.37633
-0.130115
-0.060813
6.48048
-0.214587
-0.0623828
6.596
-0.300448
-0.0563941
6.72169
-0.386987
-0.0492021
6.85744
-0.476872
-0.0402185
7.00251
-0.568615
-0.0301454
7.15826
-0.66434
-0.0192414
7.3248
-0.761214
-0.00819145
7.50368
-0.860322
0.00345386
7.69444
-0.957409
0.0150411
7.89774
-1.05169
0.0270324
8.11171
-1.13795
0.0388114
8.33499
-1.21309
0.0505604
8.56359
-1.27263
0.0620101
8.7934
-1.31177
0.0728207
9.01887
-1.32966
0.0832091
9.23432
-1.32252
0.0923755
9.435
-1.2951
0.100932
9.61736
-1.24773
0.107881
9.77928
-1.1874
0.114188
9.91938
-1.1147
0.118808
10.0376
-1.03643
0.122834
10.1345
-0.952961
0.125362
10.2109
-0.869205
0.127254
10.268
-0.785046
0.127815
10.3075
-0.704578
0.127885
10.3309
-0.627039
0.12702
10.3404
-0.555447
0.125659
10.3371
-0.488684
0.123849
10.3238
-0.429077
0.121403
10.301
-0.37522
0.119167
10.2719
-0.328903
0.115954
10.2359
-0.288447
0.113799
10.1968
-0.254992
0.110188
10.1529
-0.227001
0.108597
10.1081
-0.204882
0.105097
10.0598
-0.187781
0.104485
10.011
-0.175337
0.10225
-0.165309
0.103825
6.28991
-0.0524732
-0.0294953
6.37467
-0.154625
-0.0602506
6.47656
-0.255088
-0.0613892
6.58904
-0.357909
-0.0550165
6.71135
-0.461977
-0.0473263
6.84364
-0.5713
-0.0378523
6.98565
-0.683419
-0.0272098
7.13932
-0.802449
-0.0155644
7.30528
-0.923332
-0.00384211
7.48605
-1.05002
0.0089307
7.68146
-1.17415
0.0213417
7.89349
-1.29864
0.0349196
8.11983
-1.412
0.0477153
8.36027
-1.51498
0.0614578
8.60909
-1.59569
0.074237
8.86214
-1.65204
0.0872254
9.11114
-1.67791
0.099251
9.34889
-1.67079
0.110519
9.56871
-1.63568
0.120765
9.76667
-1.57511
0.129413
9.9406
-1.49864
0.137306
10.0891
-1.4064
0.143176
10.2126
-1.30815
0.148305
10.3116
-1.20374
0.151719
10.3882
-1.10022
0.154416
10.4438
-0.996073
0.155423
10.4808
-0.8972
0.155657
10.5004
-0.80104
0.154427
10.5053
-0.712837
0.152471
10.4964
-0.629445
0.149667
10.4769
-0.555894
0.146255
10.4477
-0.489089
0.143101
10.4123
-0.432596
0.139113
10.3702
-0.382563
0.136163
10.3255
-0.341982
0.131777
10.2762
-0.307098
0.129363
10.2265
-0.280207
0.12504
10.1735
-0.258369
0.123569
10.1205
-0.242949
0.120564
-0.229186
0.120886
6.28976
-0.060959
-0.0291721
6.37239
-0.177596
-0.0596557
6.47117
-0.293723
-0.0601462
6.57921
-0.41245
-0.0534961
6.69677
-0.534552
-0.0449845
6.82355
-0.662861
-0.0352275
6.96084
-0.797202
-0.0235031
7.11021
-0.940366
-0.0114473
7.2742
-1.089
0.00167641
7.45533
-1.24638
0.0152171
7.6553
-1.40339
0.0292789
7.8768
-1.56444
0.0443027
8.1181
-1.71211
0.0588086
8.38032
-1.8521
0.0748938
8.65547
-1.96025
0.0894145
8.94
-2.04195
0.105384
9.22058
-2.07784
0.119351
9.48823
-2.07204
0.133617
9.73311
-2.0264
0.145832
9.9514
-1.95012
0.156721
10.1402
-1.85375
0.166358
10.2996
-1.73982
0.173927
10.4316
-1.62035
0.18021
10.5362
-1.49215
0.183856
10.6153
-1.36506
0.185745
10.6718
-1.23906
0.186476
10.7084
-1.11977
0.18598
10.727
-1.00363
0.183966
10.73
-0.89602
0.18021
10.7188
-0.793793
0.175473
10.6974
-0.703478
0.168987
10.666
-0.620165
0.162495
10.628
-0.549635
0.155074
10.5828
-0.486306
0.148983
10.5347
-0.435524
0.141634
10.4817
-0.390732
0.136612
10.4285
-0.356965
0.129964
10.3714
-0.327758
0.126446
10.3144
-0.307749
0.121817
-0.286784
0.120355
6.28981
-0.0686589
-0.0287006
6.36954
-0.198595
-0.0587272
6.46389
-0.329109
-0.0589709
6.56587
-0.462934
-0.0514919
6.6766
-0.602716
-0.0425639
6.79531
-0.749595
-0.0319748
6.92529
-0.9078
-0.0193849
7.06702
-1.07545
-0.00664437
7.22665
-1.25689
0.00825261
7.4049
-1.44685
0.0222231
7.60875
-1.64648
0.0392334
7.83857
-1.84889
0.0546237
8.09802
-2.04444
0.0728851
8.38615
-2.23044
0.0902018
8.69593
-2.37827
0.108236
9.02223
-2.49534
0.127095
9.34551
-2.54488
0.143748
9.65266
-2.54116
0.161962
9.92824
-2.4778
0.175818
10.1755
-2.38808
0.190732
10.385
-2.26348
0.20025
10.5621
-2.12529
0.208344
10.7088
-1.981
0.213932
10.8303
-1.82975
0.216106
10.9281
-1.67408
0.211239
11.0017
-1.51514
0.202454
11.0497
-1.35884
0.191097
11.0723
-1.20476
0.17854
11.0712
-1.0604
0.16539
11.0504
-0.926617
0.1537
11.013
-0.808899
0.14281
10.9627
-0.70351
0.133649
10.9044
-0.615412
0.124098
10.8392
-0.538113
0.116932
10.7721
-0.476862
0.108482
10.7013
-0.423323
0.103402
10.6318
-0.383544
0.096015
10.5594
-0.348198
0.0929155
10.488
-0.324463
0.0880487
-0.296351
0.087123
6.28985
-0.0735878
-0.0283768
6.36595
-0.217747
-0.0569517
6.45399
-0.358669
-0.0584789
6.54829
-0.509034
-0.0481978
6.64898
-0.662301
-0.0411072
6.75687
-0.830661
-0.0268262
6.8751
-1.00957
-0.0164609
7.00544
-1.20644
0.000656189
7.15565
-1.42093
0.0138313
7.32694
-1.65002
0.0318904
7.5312
-1.90018
0.0494301
7.7669
-2.15146
0.0668754
8.04701
-2.41421
0.0896637
8.3644
-2.65428
0.106453
8.72014
-2.86593
0.131917
9.10226
-3.02789
0.150431
9.48309
-3.09862
0.172908
9.84278
-3.09462
0.193772
10.1625
-3.0089
0.211383
10.4492
-2.89999
0.225169
10.7108
-2.75829
0.233244
10.9421
-2.58049
0.22395
11.1268
-2.37115
0.205464
11.2572
-2.14235
0.182147
11.3311
-1.90984
0.161895
11.3606
-1.68791
0.143271
11.3554
-1.47767
0.123971
11.3246
-1.28236
0.108409
11.2748
-1.10573
0.0951075
11.212
-0.946423
0.0826891
11.1392
-0.806874
0.0707464
11.06
-0.685376
0.0610896
10.9772
-0.584101
0.0513975
10.8926
-0.498186
0.044743
10.8089
-0.430352
0.037195
10.725
-0.372857
0.0334493
10.6443
-0.330417
0.0275473
10.5624
-0.292718
0.0263648
10.483
-0.267323
0.0223286
-0.234533
0.0244514
6.28924
-0.0754686
-0.0282155
6.36083
-0.234235
-0.055099
6.44083
-0.380641
-0.0580299
6.52512
-0.548953
-0.0443758
6.61235
-0.709445
-0.0400789
6.7055
-0.903584
-0.0202304
6.80647
-1.0956
-0.0149453
6.92001
-1.33122
0.0112469
7.05293
-1.57021
0.0163471
7.21199
-1.8564
0.0473165
7.4077
-2.15101
0.0551269
7.64751
-2.47744
0.0861709
7.9454
-2.8156
0.103496
8.29686
-3.1326
0.126854
8.714
-3.44124
0.158173
9.16996
-3.655
0.171145
9.63242
-3.76824
0.207167
10.0657
-3.75331
0.225433
10.4977
-3.68731
0.246405
10.8849
-3.50399
0.216747
11.1758
-3.22269
0.173518
11.3515
-2.89283
0.13668
11.4438
-2.5609
0.0974622
11.4761
-2.25051
0.0758543
11.4711
-1.96138
0.0564739
11.4397
-1.69366
0.0372021
11.384
-1.44351
0.0215115
11.311
-1.21429
0.00493452
11.2213
-1.00544
-0.0105616
11.1207
-0.823111
-0.0227281
11.0121
-0.665365
-0.0329408
10.9006
-0.534106
-0.0397284
10.7881
-0.425619
-0.0459681
10.6776
-0.339305
-0.0484024
10.5707
-0.271221
-0.0522276
10.4673
-0.218466
-0.0510354
10.3694
-0.179041
-0.0534612
10.2734
-0.147029
-0.0496917
10.1814
-0.124758
-0.050587
-0.0956165
-0.0451538
6.2875
-0.0767957
-0.0271327
6.35348
-0.244663
-0.0555533
6.42404
-0.395928
-0.0552744
6.49501
-0.576438
-0.0434839
6.56569
-0.744409
-0.0357131
6.63791
-0.958629
-0.0171725
6.71691
-1.16513
-0.00947946
6.80321
-1.43646
0.0189427
6.91264
-1.70106
0.0214287
7.04557
-2.05286
0.0635274
7.22385
-2.38752
0.0582273
7.46023
-2.82753
0.113705
7.76403
-3.22648
0.10708
8.16343
-3.69232
0.160328
8.65606
-4.10409
0.170217
9.20655
-4.39647
0.190984
9.83111
-4.63575
0.242953
10.4637
-4.60937
0.223514
10.959
-4.32732
0.144699
11.2525
-3.86048
0.062986
11.3889
-3.38459
0.0254652
11.4424
-2.92958
-0.0167311
11.4291
-2.50639
-0.0411916
11.3698
-2.11712
-0.0740821
11.2751
-1.77175
-0.0950131
11.1587
-1.46688
-0.110344
11.0244
-1.18726
-0.121908
10.8771
-0.93608
-0.130924
10.7203
-0.711598
-0.137045
10.5603
-0.522638
-0.140516
10.4002
-0.363261
-0.142009
10.2458
-0.239014
-0.14063
10.0976
-0.138469
-0.138999
9.95955
-0.0672007
-0.134043
9.83081
-0.0113622
-0.131117
9.71281
0.023373
-0.123836
9.60398
0.0509974
-0.121208
9.50379
0.0657019
-0.112547
9.41032
0.0788525
-0.11014
0.0927139
-0.103843
6.28403
-0.0769036
-0.025496
6.34441
-0.24744
-0.0576083
6.40242
-0.403611
-0.0503211
6.45814
-0.586569
-0.0455945
6.50641
-0.765607
-0.0270671
6.55409
-0.986622
-0.0196881
6.60175
-1.21659
0.00379768
6.65113
-1.50307
0.0172327
6.72716
-1.81558
0.0384916
6.81017
-2.20338
0.0675033
6.9696
-2.62075
0.0738039
7.16443
-3.15464
0.132278
7.47948
-3.65412
0.11259
7.9307
-4.33674
0.1932
8.48369
-4.80978
0.152698
9.28717
-5.43411
0.234164
10.191
-5.71573
0.176145
10.8453
-5.26417
0.000483167
11.1438
-4.55331
-0.0724364
11.2368
-3.82985
-0.12371
11.1981
-3.15058
-0.195273
11.0597
-2.5483
-0.242867
10.8642
-2.04359
-0.267267
10.6351
-1.61314
-0.274883
10.3948
-1.26859
-0.262857
10.1564
-0.981556
-0.246976
9.92167
-0.719802
-0.232709
9.69225
-0.484534
-0.222129
9.47135
-0.277515
-0.213187
9.2637
-0.109511
-0.205475
9.07152
0.026494
-0.197574
8.89778
0.12396
-0.189232
8.74191
0.198394
-0.180994
8.6052
0.24097
-0.171466
8.48544
0.27164
-0.163238
8.38232
0.279935
-0.153443
8.29372
0.286229
-0.146636
8.21867
0.278848
-0.138089
8.15608
0.275508
-0.134063
0.267907
-0.133969
6.2793
-0.0759367
-0.0266356
6.33341
-0.244033
-0.0575186
6.37703
-0.399385
-0.0478421
6.41725
-0.58183
-0.0449587
6.43528
-0.762576
-0.0210617
6.45796
-0.989674
-0.0196257
6.4553
-1.23026
0.0163271
6.47014
-1.53241
0.0144941
6.47723
-1.88341
0.0607385
6.50958
-2.29808
0.0623464
6.61218
-2.82532
0.101973
6.72337
-3.39975
0.133921
7.08181
-4.13994
0.127388
7.48707
-4.92898
0.186985
8.22495
-5.70257
0.154918
9.47451
-6.81633
0.13266
10.4699
-6.52402
-0.187144
10.816
-5.35283
-0.257413
10.7932
-4.16089
-0.369662
10.5187
-3.11485
-0.440403
10.1218
-2.28259
-0.471175
9.68444
-1.64465
-0.46625
9.24826
-1.17946
-0.427952
8.83277
-0.828044
-0.369605
8.4644
-0.61163
-0.288589
8.14838
-0.440023
-0.225512
7.87303
-0.253916
-0.190541
7.62905
-0.0646801
-0.175871
7.41398
0.108477
-0.170926
7.2273
0.246664
-0.169492
7.06913
0.352729
-0.16807
6.93781
0.420228
-0.164939
6.83085
0.467071
-0.16172
6.74713
0.479273
-0.154588
6.68496
0.483008
-0.149195
6.63896
0.468206
-0.142273
6.61073
0.453323
-0.138861
6.59723
0.425482
-0.133132
6.60222
0.404892
-0.134379
0.383963
-0.150501
6.27615
-0.0781702
-0.0305916
6.31981
-0.233048
-0.0546441
6.3511
-0.381587
-0.049079
6.36695
-0.558241
-0.0394421
6.35667
-0.731098
-0.0212021
6.34258
-0.963383
-0.0121937
6.28516
-1.19348
0.0206389
6.25355
-1.52055
0.0197517
6.15957
-1.86647
0.0770426
6.15054
-2.34603
0.0569754
6.09
-2.89806
0.133287
6.17567
-3.60839
0.122963
6.43054
-4.50771
0.112906
6.75191
-5.47032
0.219962
7.9867
-6.91578
-0.0215824
9.54537
-7.95962
-0.41538
10.1794
-6.63804
-0.519996
9.91102
-4.4769
-0.607568
9.16142
-2.75696
-0.65433
8.31241
-1.61391
-0.651935
7.53168
-0.908495
-0.593362
6.86992
-0.489946
-0.492952
6.32877
-0.275039
-0.363269
5.86411
-0.138657
-0.224724
5.52105
-0.209976
-0.0585936
5.27471
-0.208891
0.0152096
5.09246
-0.0908146
0.0191454
4.9479
0.0900769
-0.0101993
4.83346
0.270027
-0.0471117
4.74775
0.410087
-0.0777066
4.69123
0.508507
-0.0992609
4.66002
0.563819
-0.112386
4.65596
0.589775
-0.118641
4.6681
0.59112
-0.123988
4.69754
0.578262
-0.124695
4.74096
0.548055
-0.12327
4.80188
0.517276
-0.124869
4.87983
0.47563
-0.128102
4.97535
0.445972
-0.136598
0.413801
-0.176571
6.27694
-0.0794053
-0.0296483
6.30733
-0.208963
-0.0544688
6.32833
-0.354845
-0.0477419
6.31174
-0.504487
-0.0371635
6.28142
-0.681236
-0.0195459
6.20446
-0.880933
-0.0054801
6.11508
-1.12487
0.0207631
5.98208
-1.41827
0.0307266
5.82167
-1.78807
0.0820051
5.68044
-2.2605
0.0557026
5.45175
-2.84502
0.175664
5.45524
-3.65593
0.0440479
5.3769
-4.62697
0.197599
5.83377
-5.97116
0.0439695
7.36073
-7.76265
-0.68009
8.79282
-8.51587
-0.875844
8.3229
-5.41142
-0.756701
6.61414
-2.12459
-0.643552
5.04794
-0.631845
-0.55891
4.01423
-0.126172
-0.454027
3.3777
0.0597756
-0.331749
2.97528
0.114149
-0.201671
2.65895
0.106402
-0.0651148
2.2796
0.105776
0.134919
2.14133
-0.437326
0.365619
2.17046
-0.557681
0.319661
2.18387
-0.344643
0.240412
2.1969
-0.0468055
0.123853
2.22231
0.213191
0.031433
2.26877
0.393438
-0.0298156
2.33966
0.505147
-0.0675257
2.43107
0.562444
-0.0900427
2.54249
0.582666
-0.104303
2.66838
0.577072
-0.111846
2.80888
0.555794
-0.118034
2.95657
0.521502
-0.121135
3.1187
0.483125
-0.127981
3.29525
0.438121
-0.139041
3.49864
0.402336
-0.159753
0.369916
-0.232481
6.27766
-0.066748
-0.0280017
6.30001
-0.180259
-0.051049
6.30218
-0.308002
-0.0490097
6.2635
-0.434232
-0.0315787
6.20029
-0.596235
-0.0217817
6.07848
-0.763348
0.00421863
5.93358
-0.994252
0.0142904
5.70623
-1.2447
0.0537692
5.46199
-1.60497
0.0611488
5.11461
-2.01924
0.106123
4.76481
-2.62078
0.125566
4.40555
-3.35845
0.0617803
3.96147
-4.3782
0.195307
4.30589
-5.8322
-0.48338
5.26636
-7.50457
-1.21856
7.11636
-9.13573
-1.23014
2.53642
-0.831479
0.61917
-0.207338
0.084275
-0.0969518
-0.0199012
-0.0219972
0.0242667
0.0156065
0.0796379
0.0587763
0.0612936
0.124745
-0.105631
0.272701
0.10801
-1.20189
0.550924
0.20109
-1.12681
0.476052
0.136523
-0.599881
0.319804
0.102006
-0.180651
0.168363
0.143255
0.117452
0.0544904
0.251089
0.30425
-0.0186464
0.408404
0.411809
-0.0639775
0.597295
0.466347
-0.0927942
0.807994
0.484097
-0.112131
1.03165
0.478819
-0.125402
1.26645
0.456944
-0.135951
1.50562
0.425675
-0.143343
1.75837
0.385915
-0.155544
2.02469
0.344476
-0.17267
2.3332
0.306683
-0.212859
0.282897
-0.323778
6.27718
-0.0481742
-0.0270432
6.29352
-0.147266
-0.0493326
6.27612
-0.242368
-0.048237
6.22045
-0.349054
-0.0294967
6.11707
-0.473135
-0.0197181
5.96315
-0.617471
0.00803913
5.7464
-0.796604
0.019104
5.4558
-1.01417
0.060076
5.09037
-1.30284
0.0632951
4.60542
-1.65684
0.122555
4.05331
-2.14961
0.0809383
3.31576
-2.7422
0.1213
2.60249
-3.58485
-0.0800785
2.20284
-4.51214
-0.920403
1.82464
-5.50142
-1.62494
-5.89501
-1.41608
-0.415972
-1.30233
0.516408
-0.891174
-1.17417
0.522555
-1.2268
-0.594083
0.32983
-1.36203
-0.2241
0.178675
-1.33065
0.0328801
0.0531963
-1.19318
0.197707
-0.0309281
-0.981909
0.286157
-0.0856208
-0.727632
0.331999
-0.119929
-0.446518
0.345673
-0.142689
-0.149475
0.339654
-0.157878
0.156496
0.321799
-0.170827
0.467442
0.297558
-0.182829
0.788847
0.265921
-0.201411
1.12681
0.233372
-0.22686
1.52585
0.198577
-0.290937
0.187292
-0.43887
6.27637
-0.0320229
-0.026429
6.28638
-0.108093
-0.0491756
6.25669
-0.167348
-0.0453302
6.17984
-0.240842
-0.0313657
6.0522
-0.331151
-0.0143432
5.86011
-0.431252
0.00587897
5.59454
-0.559439
0.0284009
5.23885
-0.713856
0.0553798
4.77486
-0.918403
0.0795642
4.18565
-1.17449
0.106857
3.45495
-1.52034
0.101434
2.60277
-1.95322
0.0632022
1.74476
-2.51517
-0.211667
1.39361
-3.1148
-1.04619
1.22389
-3.60933
-1.72238
-3.3864
-1.28473
-0.734942
-0.996144
0.428757
-1.54678
-0.887122
0.524791
-2.0316
-0.455657
0.346395
-2.24597
-0.196635
0.186904
-2.23391
-0.0271751
0.0480018
-2.09053
0.106924
-0.0526001
-1.85405
0.166107
-0.116433
-1.56403
0.201204
-0.159222
-1.24219
0.211752
-0.187926
-0.902469
0.208117
-0.208182
-0.553763
0.195922
-0.222829
-0.19836
0.177329
-0.235175
0.167068
0.153598
-0.253104
0.555316
0.132842
-0.287719
1.02075
0.108273
-0.37513
0.106608
-0.551854
6.27749
-0.0132784
-0.0250594
6.27936
-0.0643435
-0.0456167
6.24192
-0.0828569
-0.0470411
6.15153
-0.121139
-0.0293174
6.00518
-0.170218
-0.0145746
5.78574
-0.221863
0.0100458
5.48694
-0.288449
0.0278174
5.07933
-0.368138
0.0618893
4.55864
-0.474917
0.0772024
3.87453
-0.605336
0.114954
3.04711
-0.781386
0.0884692
2.02915
-0.989064
0.0538083
1.07729
-1.27414
-0.289174
0.683986
-1.57103
-1.15046
0.551662
-1.7842
-1.69281
-1.65645
-1.17828
-0.878864
-0.528077
0.410798
-1.85222
-0.470656
0.556887
-2.42551
-0.241916
0.359553
-2.68931
-0.111296
0.178458
-2.71886
-0.0381389
0.0405117
-2.57793
0.0452495
-0.0792527
-2.33647
0.0721369
-0.147493
-2.03139
0.0917902
-0.195667
-1.69012
0.0979131
-0.227433
-1.32829
0.0960862
-0.249791
-0.956182
0.0903603
-0.266552
-0.577263
0.0806511
-0.282241
-0.18905
0.0678372
-0.302453
0.227641
0.0568148
-0.340665
0.734592
0.04499
-0.443668
0.0467062
-0.638732
6.2844
-4.87037e-06
-0.0209446
6.2607
-1.13e-05
-0.0406293
6.22756
2.0306e-06
-0.049708
6.1385
-4.4856e-06
-0.0320741
5.98103
-4.72339e-06
-0.0127415
5.74983
-8.23212e-06
0.00934723
5.43063
-1.0368e-05
0.0307574
5.00246
-1.15377e-05
0.0600449
4.44647
-1.9264e-05
0.0810981
3.73336
-7.9657e-06
0.107782
2.86667
-1.97301e-05
0.0853261
1.86339
-1.65873e-05
0.0142333
0.946772
1.51285e-05
-0.357533
0.560299
-2.898e-05
-1.18453
0.48701
-1.60808e-06
-1.71091
9.69412e-06
-1.16945
-0.935764
-7.97754e-05
0.407766
-1.97447
-6.29677e-05
0.568115
-2.57899
-2.29727e-05
0.362621
-2.85467
-7.6528e-07
0.164392
-2.92768
1.11334e-05
0.0348578
-2.78596
2.89475e-05
-0.0965023
-2.5459
3.44794e-05
-0.16796
-2.23691
3.91142e-05
-0.217235
-1.888
4.11159e-05
-0.251039
-1.51819
4.1389e-05
-0.273771
-1.13633
4.08626e-05
-0.291534
-0.747503
3.91599e-05
-0.308219
-0.348891
3.64835e-05
-0.330812
0.0796536
3.34783e-05
-0.371764
0.605833
2.87066e-05
-0.481218
2.27379e-05
-0.685042
6.2844
0.0132685
-0.020934
6.26071
0.0643095
-0.0406219
6.22754
0.0828765
-0.0497091
6.13848
0.121134
-0.032076
5.98102
0.170208
-0.012747
5.74983
0.221846
0.00934272
5.43063
0.288431
0.0307517
5.00247
0.368109
0.0600441
4.44647
0.474898
0.0810868
3.73338
0.605295
0.107784
2.86669
0.781356
0.0853199
1.86342
0.989037
0.0142126
0.94687
1.27408
-0.357514
0.56032
1.57103
-1.18451
0.487018
1.78421
-1.71091
1.65648
-1.16945
-0.935779
0.527932
0.407766
-1.9745
0.470537
0.568118
-2.57902
0.241873
0.362623
-2.85471
0.111298
0.16439
-2.92772
0.038172
0.0348573
-2.786
-0.0451894
-0.0965039
-2.54594
-0.0720641
-0.167963
-2.23696
-0.0917098
-0.217236
-1.88805
-0.0978296
-0.251041
-1.51823
-0.0960026
-0.273772
-1.13638
-0.0902784
-0.291536
-0.747544
-0.0805727
-0.30822
-0.34893
-0.067764
-0.330814
0.079616
-0.0567474
-0.371766
0.605796
-0.0449319
-0.48122
-0.0466604
-0.685045
6.27751
0.0320079
-0.0250553
6.27929
0.108131
-0.0456014
6.2419
0.167317
-0.0470472
6.15152
0.240834
-0.0293187
6.00517
0.331141
-0.0145773
5.78573
0.431237
0.0100423
5.48693
0.559419
0.0278147
5.07933
0.713832
0.0618837
4.55866
0.91837
0.0772018
3.87455
1.17446
0.114946
3.04715
1.52029
0.0884693
2.0292
1.95318
0.0537971
1.07729
2.51514
-0.289148
0.684024
3.11478
-1.15047
0.551692
3.60933
-1.69279
3.38644
-1.17827
-0.878908
0.996035
0.410806
-1.8523
0.887032
0.556899
-2.42562
0.455627
0.359558
-2.68942
0.196647
0.178455
-2.71899
0.0272307
0.0405117
-2.57807
-0.106856
-0.079257
-2.33661
-0.166026
-0.147497
-2.03153
-0.201119
-0.195671
-1.69025
-0.211666
-0.227437
-1.32843
-0.208034
-0.249794
-0.956314
-0.195841
-0.266554
-0.57739
-0.177253
-0.282244
-0.189172
-0.153525
-0.302456
0.227524
-0.132775
-0.340669
0.73448
-0.108216
-0.443672
-0.106564
-0.638737
6.27636
0.0481721
-0.0264286
6.28639
0.147266
-0.049163
6.25668
0.242361
-0.0453298
6.17984
0.34904
-0.0313642
6.05219
0.473126
-0.014341
5.8601
0.617451
0.00588022
5.59453
0.796587
0.0284035
5.23885
1.01414
0.0553798
4.77485
1.3028
0.0795639
4.18565
1.6568
0.106862
3.45499
2.14954
0.101416
2.60278
2.74217
0.0632138
1.74485
3.58478
-0.211692
1.39369
4.51208
-1.04614
1.22394
5.50141
-1.72233
5.89507
-1.28469
-0.735031
1.30232
0.428748
-1.54695
1.17414
0.524804
-2.03181
0.594083
0.346403
-2.2462
0.224136
0.186905
-2.23416
-0.03281
0.0480044
-2.09079
-0.19763
-0.0526031
-1.85431
-0.28607
-0.116435
-1.56429
-0.331914
-0.159224
-1.24244
-0.345591
-0.187927
-0.902712
-0.339578
-0.208182
-0.553997
-0.321727
-0.22283
-0.198585
-0.297489
-0.235176
0.166851
-0.265859
-0.253103
0.555111
-0.233317
-0.287717
1.02056
-0.198529
-0.375132
-0.187255
-0.551858
6.27717
0.066749
-0.0270431
6.29352
0.180253
-0.0493298
6.27612
0.307999
-0.0482362
6.22044
0.434219
-0.0294961
6.11706
0.596227
-0.0197181
5.96314
0.76333
0.00804043
5.74639
0.994235
0.019104
5.45578
1.24466
0.0600786
5.09036
1.60494
0.0632871
4.6054
2.01918
0.122578
4.05331
2.62072
0.080905
3.31579
3.35836
0.12133
2.60257
4.37808
-0.0800809
2.20293
5.83212
-0.920413
1.82475
7.50452
-1.62493
9.13587
-1.41605
-0.416133
1.20208
0.516366
-0.891475
1.12695
0.522538
-1.22715
0.599937
0.329824
-1.3624
0.18071
0.178677
-1.33104
-0.11738
0.0532018
-1.19357
-0.304172
-0.0309239
-0.982293
-0.41173
-0.0856183
-0.728006
-0.466275
-0.119926
-0.44688
-0.484033
-0.142684
-0.149824
-0.478763
-0.157872
0.156161
-0.456895
-0.170816
0.467122
-0.425635
-0.182815
0.788542
-0.38588
-0.201398
1.12652
-0.344447
-0.226849
1.52558
-0.306659
-0.290928
-0.282882
-0.438864
6.27766
0.0794028
-0.028001
6.30001
0.208959
-0.0510509
6.30217
0.354841
-0.0490067
6.2635
0.50448
-0.0315818
6.20027
0.681228
-0.021777
6.07847
0.88092
0.00421382
5.93355
1.12485
0.0142973
5.70621
1.41824
0.053762
5.46196
1.78804
0.0611575
5.1146
2.26044
0.1061
4.76477
2.84496
0.125598
4.40559
3.65582
0.0617225
3.96148
4.62681
0.195371
4.30597
5.97094
-0.483305
5.2666
7.76241
-1.21852
7.11665
8.51588
-1.23006
2.53655
5.41148
-0.831384
0.618995
2.12474
-0.207189
0.0839084
0.631908
-0.0968225
-0.0203603
0.126194
-0.0219266
0.0237791
-0.0597807
0.0156398
0.079163
-0.114171
0.0587848
0.0608498
-0.106434
0.124745
-0.106066
-0.105772
0.272687
0.107672
0.437439
0.550907
0.200747
0.557833
0.47604
0.136139
0.344746
0.319799
0.101573
0.0468942
0.168382
0.142792
-0.213114
0.0545151
0.250622
-0.393377
-0.0186251
0.407952
-0.505103
-0.0639568
0.596863
-0.562413
-0.0927728
0.807583
-0.582646
-0.112107
1.03126
-0.577061
-0.125376
1.26608
-0.55579
-0.135924
1.50526
-0.521505
-0.143316
1.75803
-0.483133
-0.155517
2.02436
-0.438133
-0.172644
2.33289
-0.402352
-0.212834
-0.369936
-0.323755
6.27694
0.0781737
-0.0296487
6.30733
0.233041
-0.0544674
6.32832
0.381589
-0.0477431
6.31173
0.558231
-0.037161
6.28141
0.731102
-0.0195481
6.20444
0.963367
-0.00547655
6.11505
1.19348
0.0207588
5.98205
1.52052
0.030731
5.82163
1.86646
0.0819973
5.6804
2.34597
0.0556983
5.45171
2.898
0.175646
5.45523
3.60828
0.0440186
5.37698
4.50749
0.19757
5.83391
5.47009
0.0439197
7.36105
6.91524
-0.679972
8.79322
7.95925
-0.875544
8.32331
6.63778
-0.756391
6.61439
4.47677
-0.643115
5.04794
2.75685
-0.55849
4.014
1.61379
-0.453658
3.37731
0.908364
-0.331451
2.97478
0.489806
-0.201445
2.65837
0.274904
-0.0649347
2.27898
0.138544
0.13508
2.14074
0.209925
0.365749
2.16994
0.208884
0.31975
2.18339
0.0908129
0.240485
2.19645
-0.0900847
0.123911
2.22189
-0.27004
0.0314866
2.26839
-0.410108
-0.0297668
2.33931
-0.508538
-0.0674802
2.43075
-0.563858
-0.0899981
2.54218
-0.589821
-0.104258
2.66809
-0.591171
-0.111801
2.80861
-0.578316
-0.11799
2.95631
-0.548113
-0.121091
3.11845
-0.517335
-0.127938
3.29501
-0.47569
-0.139
3.4984
-0.446033
-0.159713
-0.413863
-0.232443
6.27615
0.0759354
-0.03059
6.31981
0.244032
-0.0546482
6.35109
0.399383
-0.0490745
6.36694
0.581831
-0.0394481
6.35666
0.762575
-0.0211936
6.34255
0.989678
-0.0122052
6.28512
1.23025
0.0206549
6.2535
1.53242
0.0197272
6.15951
1.88338
0.0770712
6.15047
2.29809
0.0569189
6.08991
2.82524
0.133321
6.1756
3.39976
0.122839
6.43049
4.13973
0.112878
6.75201
4.92889
0.219678
7.98706
5.70209
-0.0219042
9.54586
6.81568
-0.415221
10.1799
6.5234
-0.519655
9.91161
5.3523
-0.607232
9.16203
4.16043
-0.654
8.31297
3.11442
-0.651573
7.53213
2.2822
-0.592994
6.87025
1.64429
-0.49261
6.32899
1.17913
-0.362964
5.86422
0.827764
-0.224458
5.5211
0.611401
-0.0583562
5.27473
0.439837
0.0154186
5.09247
0.253754
0.0193192
4.94791
0.0645345
-0.0100582
4.83348
-0.108611
-0.0469947
4.74777
-0.246791
-0.0776078
4.69125
-0.352851
-0.099176
4.66005
-0.420346
-0.11231
4.65599
-0.467186
-0.118575
4.66813
-0.479384
-0.123925
4.69757
-0.483114
-0.124638
4.74098
-0.46831
-0.123217
4.80189
-0.453421
-0.124821
4.87983
-0.42558
-0.128056
4.97533
-0.404981
-0.136556
-0.384053
-0.176531
6.27929
0.0768869
-0.0266311
6.3334
0.247451
-0.0575281
6.37702
0.403598
-0.047831
6.41723
0.58659
-0.0449716
6.43526
0.765591
-0.0210445
6.45793
0.986655
-0.0196457
6.45526
1.21657
0.0163509
6.47009
1.50312
0.0144666
6.47716
1.81555
0.0607614
6.50949
2.20345
0.0623127
6.61206
2.62071
0.101958
6.72322
3.15472
0.13388
7.08164
3.65409
0.127216
7.48693
4.33677
0.186829
8.22504
4.80973
0.154243
9.47482
5.43375
0.132148
10.4703
5.71523
-0.187313
10.8164
5.26367
-0.257508
10.7938
4.55277
-0.36972
10.5193
3.82933
-0.440428
10.1226
3.15009
-0.471147
9.68523
2.54783
-0.466173
9.24906
2.04315
-0.427838
8.83355
1.61274
-0.369469
8.46516
1.26824
-0.288442
8.1491
0.981252
-0.225362
7.87372
0.719536
-0.190401
7.6297
0.4843
-0.175746
7.4146
0.277306
-0.170816
7.22788
0.109323
-0.169396
7.06969
-0.0266651
-0.167989
6.93833
-0.124116
-0.164869
6.83134
-0.198536
-0.161661
6.74759
-0.241099
-0.154536
6.68538
-0.271757
-0.149151
6.63935
-0.280043
-0.142234
6.61108
-0.286325
-0.138829
6.59755
-0.27894
-0.133103
6.60251
-0.275591
-0.134353
-0.267984
-0.150482
6.28402
0.0767786
-0.0254918
6.34441
0.244677
-0.0576122
6.40241
0.395916
-0.050316
6.45813
0.576464
-0.0455995
6.50639
0.744397
-0.0270612
6.55407
0.958669
-0.0196916
6.60172
1.16512
0.00380099
6.65109
1.43652
0.017234
6.72709
1.70106
0.0384833
6.81009
2.05294
0.0675118
6.96948
2.38755
0.0737653
7.16429
2.82765
0.132275
7.47929
3.22659
0.112496
7.93048
3.69252
0.193056
8.48351
4.10431
0.152394
9.28706
4.39673
0.233475
10.191
4.63578
0.175548
10.8454