/*--------------------------------*- C++ -*----------------------------------*\
| =========                 |                                                 |
| \\      /  F ield         | OpenFOAM: The Open Source CFD Toolbox           |
|  \\    /   O peration     | Version:  2412                                  |
|   \\  /    A nd           | Website:  www.openfoam.com                      |
|    \\/     M anipulation  |                                                 |
\*---------------------------------------------------------------------------*/
FoamFile
{
    version     2.0;
    format      ascii;
    arch        "LSB;label=32;scalar=64";
    class       volVectorField;
    location    "1000";
    object      U;
}
// * * * * * * * * * * * * * * * * * * * * * * * * * * * * * * * * * * * * * //

dimensions      [0 1 -1 0 0 0 0];

internalField   nonuniform List<vector> 
47360
(
(4.99225 -0.00381107 -0.0214697)
(5.07593 -0.0104413 -0.0452811)
(5.14342 -0.017541 -0.0517767)
(5.23233 -0.0241923 -0.0509769)
(5.33563 -0.0310387 -0.0471835)
(5.44413 -0.0379639 -0.0421458)
(5.55987 -0.0449496 -0.036391)
(5.68161 -0.0519717 -0.0304226)
(5.81075 -0.0589544 -0.0244514)
(5.94512 -0.0658374 -0.0185887)
(6.0863 -0.0723763 -0.0129567)
(6.23173 -0.0785407 -0.00743499)
(6.38235 -0.083892 -0.00224332)
(6.53497 -0.0885141 0.00278383)
(6.68978 -0.0917919 0.007305)
(6.84298 -0.0940738 0.0116493)
(6.99415 -0.0945926 0.0153226)
(7.13934 -0.0941415 0.0188478)
(7.27798 -0.0917816 0.021558)
(7.40667 -0.0888718 0.0242069)
(7.52521 -0.0841552 0.025937)
(7.6313 -0.0795806 0.0277523)
(7.72527 -0.073318 0.0285854)
(7.80597 -0.0680161 0.0296861)
(7.87411 -0.0609836 0.0297729)
(7.92959 -0.0558082 0.0303114)
(7.97322 -0.0485629 0.0298419)
(8.00572 -0.0442092 0.0299617)
(8.02788 -0.0370278 0.0291398)
(8.04091 -0.0341675 0.0289755)
(8.04512 -0.0267877 0.0280411)
(8.04232 -0.0244698 0.0276627)
(8.03436 -0.0202215 0.0265361)
(8.01807 -0.0177952 0.0261485)
(8.00432 -0.0148715 0.0251194)
(7.97682 -0.012913 0.0249901)
(7.95942 -0.011055 0.0239464)
(7.92485 -0.00986642 0.024205)
(7.90576 -0.00886567 0.0234013)
(7.85889 -0.0082436 0.0247971)
(4.99229 -0.0110117 -0.0212548)
(5.07599 -0.0315104 -0.0452673)
(5.14351 -0.0523916 -0.0517291)
(5.23173 -0.0725988 -0.0506571)
(5.3351 -0.0932763 -0.0468818)
(5.44266 -0.114016 -0.041901)
(5.55892 -0.13518 -0.036041)
(5.67979 -0.156256 -0.0300867)
(5.80996 -0.177558 -0.0239687)
(5.94379 -0.198224 -0.0181348)
(6.08685 -0.218366 -0.0123029)
(6.23232 -0.236842 -0.0068119)
(6.38591 -0.253585 -0.0013705)
(6.53927 -0.2673 0.00360666)
(6.69808 -0.277932 0.00843028)
(6.85249 -0.284351 0.012698)
(7.00829 -0.286761 0.0167248)
(7.15455 -0.284586 0.0201344)
(7.29778 -0.278447 0.0232428)
(7.42671 -0.268467 0.0257226)
(7.54929 -0.255504 0.0278867)
(7.65443 -0.240086 0.029474)
(7.75178 -0.222916 0.030764)
(7.83031 -0.204784 0.0315841)
(7.90133 -0.185948 0.0321287)
(7.95356 -0.167486 0.0323552)
(7.99978 -0.148926 0.032299)
(8.02817 -0.131926 0.0321279)
(8.05282 -0.114872 0.0316151)
(8.06108 -0.100606 0.0312505)
(8.06818 -0.0855574 0.0304416)
(8.06098 -0.0747648 0.0300601)
(8.05476 -0.0627149 0.0290192)
(8.0347 -0.0544774 0.0285718)
(8.02113 -0.0460451 0.0274552)
(7.99122 -0.0400151 0.0273172)
(7.97343 -0.034559 0.0261926)
(7.93701 -0.0309027 0.0264273)
(7.91753 -0.0279597 0.0255834)
(7.86858 -0.0259546 0.0269197)
(4.99247 -0.0179991 -0.0212016)
(5.07565 -0.0525844 -0.0451122)
(5.14319 -0.0869805 -0.0516532)
(5.23035 -0.121045 -0.0504173)
(5.33357 -0.155525 -0.0465871)
(5.43984 -0.190345 -0.0415322)
(5.55632 -0.225835 -0.0355831)
(5.67618 -0.261544 -0.0295203)
(5.80741 -0.29756 -0.0232772)
(5.94111 -0.332903 -0.0173151)
(6.08673 -0.367287 -0.0112959)
(6.23357 -0.399228 -0.00561647)
(6.39166 -0.428105 6.4761e-05)
(6.54816 -0.452127 0.00526754)
(6.71338 -0.470677 0.0103788)
(6.87228 -0.482203 0.0149068)
(7.03549 -0.486557 0.0192489)
(7.18633 -0.483186 0.0229372)
(7.3365 -0.472703 0.0263615)
(7.46862 -0.455869 0.0291098)
(7.59659 -0.433696 0.0315659)
(7.7029 -0.407626 0.0333921)
(7.80386 -0.378404 0.0349339)
(7.88151 -0.347785 0.0359419)
(7.95461 -0.315901 0.0366931)
(8.00427 -0.284701 0.0370403)
(8.05153 -0.253573 0.03714)
(8.07608 -0.224674 0.0370094)
(8.10119 -0.196552 0.0365995)
(8.10473 -0.171687 0.0361969)
(8.11213 -0.14781 0.0354038)
(8.09933 -0.127854 0.0349399)
(8.09358 -0.109128 0.0338622)
(8.06846 -0.0942416 0.033471)
(8.05424 -0.0806252 0.0322056)
(8.02034 -0.0702753 0.0320699)
(8.0015 -0.061353 0.0307991)
(7.96152 -0.0551192 0.0310025)
(7.94149 -0.0503325 0.0300432)
(7.88816 -0.0467934 0.031352)
(4.99265 -0.0250038 -0.0211486)
(5.07527 -0.0734619 -0.044951)
(5.14253 -0.121343 -0.0514604)
(5.22822 -0.169209 -0.0500628)
(5.33084 -0.217606 -0.046166)
(5.43535 -0.266825 -0.0409449)
(5.55155 -0.317127 -0.0349104)
(5.67011 -0.368185 -0.0286341)
(5.80222 -0.419888 -0.0222539)
(5.93605 -0.471081 -0.0160364)
(6.08477 -0.521217 -0.00977478)
(6.23416 -0.568146 -0.00375559)
(6.39838 -0.611012 0.00226251)
(6.56045 -0.646852 0.0078457)
(6.7348 -0.675056 0.0133937)
(6.90169 -0.692586 0.0183384)
(7.07564 -0.699925 0.0231898)
(7.23481 -0.695218 0.027313)
(7.39482 -0.680549 0.031266)
(7.53315 -0.655933 0.0344321)
(7.66828 -0.624316 0.0373821)
(7.77769 -0.586341 0.0395896)
(7.88286 -0.544799 0.0415527)
(7.96066 -0.500501 0.0428838)
(8.03549 -0.455495 0.0439486)
(8.08289 -0.410437 0.0445431)
(8.13008 -0.366705 0.0448407)
(8.15066 -0.324944 0.0448909)
(8.17466 -0.285764 0.0445452)
(8.17311 -0.249829 0.0442346)
(8.17894 -0.217047 0.0433696)
(8.16024 -0.188127 0.0429071)
(8.15294 -0.162526 0.0416756)
(8.12183 -0.140775 0.0412706)
(8.10601 -0.122109 0.0398075)
(8.0666 -0.107105 0.0396216)
(8.046 -0.0946879 0.0381516)
(8.00114 -0.0856719 0.038282)
(7.9796 -0.0788887 0.0371773)
(7.92095 -0.0736736 0.0383783)
(4.99275 -0.0318369 -0.0210958)
(5.07484 -0.0940258 -0.0447499)
(5.14129 -0.15516 -0.0511909)
(5.22514 -0.21694 -0.0496052)
(5.32638 -0.27925 -0.045632)
(5.42861 -0.343454 -0.0401568)
(5.54369 -0.408994 -0.0340549)
(5.66048 -0.476628 -0.0274228)
(5.79296 -0.545086 -0.0209594)
(5.92689 -0.614159 -0.0142564)
(6.07904 -0.68185 -0.00779914)
(6.23193 -0.746499 -0.00117625)
(6.40401 -0.805663 0.0051602)
(6.57402 -0.856219 0.0114235)
(6.76089 -0.896186 0.0174633)
(6.93953 -0.921789 0.0231389)
(7.12852 -0.933062 0.028639)
(7.30016 -0.927486 0.0335169)
(7.47374 -0.908087 0.0381844)
(7.62139 -0.875039 0.0420746)
(7.76601 -0.832807 0.0457115)
(7.88042 -0.782019 0.0485667)
(7.9907 -0.726825 0.0511174)
(8.06947 -0.667931 0.053024)
(8.14603 -0.608734 0.0545451)
(8.19144 -0.549392 0.0555245)
(8.23788 -0.492336 0.0560855)
(8.25426 -0.437306 0.0563654)
(8.27588 -0.386169 0.0561376)
(8.26876 -0.338554 0.0559282)
(8.27144 -0.295828 0.0550491)
(8.24655 -0.257563 0.0545679)
(8.23604 -0.224521 0.053183)
(8.19862 -0.195963 0.052637)
(8.17991 -0.172164 0.0509236)
(8.13439 -0.15252 0.0505124)
(8.11139 -0.136818 0.0487166)
(8.06098 -0.124992 0.0486094)
(8.03693 -0.11626 0.0472301)
(7.97278 -0.109411 0.0481025)
(4.99259 -0.0385323 -0.0210138)
(5.07458 -0.114051 -0.0445563)
(5.13904 -0.188134 -0.0508103)
(5.22115 -0.263759 -0.049103)
(5.31931 -0.339993 -0.044908)
(5.41924 -0.419696 -0.039261)
(5.53112 -0.501062 -0.032936)
(5.64621 -0.586702 -0.0259928)
(5.7771 -0.673375 -0.0193192)
(5.91169 -0.762962 -0.012053)
(6.06619 -0.850698 -0.00532522)
(6.22414 -0.936865 0.00212215)
(6.40497 -1.01565 0.00878696)
(6.58606 -1.08509 0.0161054)
(6.78895 -1.14006 0.0226704)
(6.98404 -1.17664 0.0295164)
(7.19343 -1.19352 0.0358197)
(7.38254 -1.18731 0.0418734)
(7.57446 -1.16271 0.0475398)
(7.73467 -1.11985 0.0524945)
(7.89172 -1.0656 0.0571905)
(8.01288 -1.00036 0.0609907)
(8.12991 -0.930526 0.0644108)
(8.21022 -0.855667 0.0670721)
(8.28892 -0.780645 0.0692954)
(8.33237 -0.705553 0.0707961)
(8.37839 -0.634345 0.0717473)
(8.39094 -0.565878 0.0721146)
(8.41043 -0.50284 0.0718369)
(8.39801 -0.443814 0.07131)
(8.39717 -0.390913 0.070062)
(8.36589 -0.342691 0.0691568)
(8.35151 -0.301349 0.0674286)
(8.30781 -0.265031 0.066494)
(8.2857 -0.235204 0.0644358)
(8.2344 -0.210024 0.0636034)
(8.20869 -0.190329 0.0614224)
(8.15301 -0.174834 0.0608457)
(8.12703 -0.163719 0.0590761)
(8.05741 -0.154516 0.0592467)
(4.9924 -0.0452505 -0.020862)
(5.07429 -0.133156 -0.0443838)
(5.1359 -0.219886 -0.0502935)
(5.21573 -0.308839 -0.0486083)
(5.3091 -0.399206 -0.0439384)
(5.40619 -0.494544 -0.0383827)
(5.51226 -0.592703 -0.0314103)
(5.6255 -0.697681 -0.0245702)
(5.75155 -0.804586 -0.0170709)
(5.88767 -0.917859 -0.00971103)
(6.04139 -1.02885 -0.0020449)
(6.20717 -1.14187 0.00591118)
(6.39533 -1.24439 0.0134086)
(6.59286 -1.33937 0.0218883)
(6.81379 -1.4131 0.029201)
(7.03306 -1.46598 0.0377477)
(7.2681 -1.48978 0.0450005)
(7.48239 -1.4841 0.0529292)
(7.69745 -1.45233 0.0598501)
(7.87469 -1.39865 0.0665246)
(8.04734 -1.33012 0.0725219)
(8.17691 -1.24778 0.0778129)
(8.30305 -1.16128 0.0822984)
(8.38729 -1.07041 0.0857829)
(8.47111 -0.979576 0.0878348)
(8.51382 -0.88665 0.0893723)
(8.56194 -0.798345 0.089909)
(8.5717 -0.712212 0.090004)
(8.59233 -0.63424 0.0887812)
(8.57572 -0.56065 0.0873895)
(8.57521 -0.497217 0.0845742)
(8.5407 -0.439499 0.0818761)
(8.52608 -0.391057 0.0781369)
(8.47839 -0.34764 0.0753143)
(8.45521 -0.312722 0.0714391)
(8.39953 -0.282132 0.0689452)
(8.37242 -0.258822 0.0652829)
(8.31229 -0.239271 0.0633045)
(8.28468 -0.225571 0.0604289)
(8.20878 -0.212586 0.0592091)
(4.99331 -0.0518126 -0.0207684)
(5.07273 -0.150774 -0.0439109)
(5.13336 -0.249861 -0.049957)
(5.20672 -0.350961 -0.0477354)
(5.29688 -0.456047 -0.0431337)
(5.38625 -0.566168 -0.0371083)
(5.48731 -0.683102 -0.0298645)
(5.59373 -0.807437 -0.0228694)
(5.71468 -0.93852 -0.0143366)
(5.84864 -1.07735 -0.00728422)
(6.00033 -1.21769 0.00239453)
(6.17378 -1.36251 0.00966744)
(6.36803 -1.49609 0.0197831)
(6.58772 -1.62474 0.028156)
(6.82789 -1.72335 0.0377754)
(7.08299 -1.80021 0.0477394)
(7.34828 -1.83257 0.0567032)
(7.6012 -1.82857 0.0672496)
(7.8415 -1.78679 0.0757025)
(8.04404 -1.71866 0.0854271)
(8.23546 -1.63533 0.0922915)
(8.38067 -1.5333 0.0983612)
(8.52026 -1.42516 0.102093)
(8.61485 -1.30969 0.104856)
(8.71346 -1.20093 0.103124)
(8.77141 -1.09634 0.0991099)
(8.83215 -0.99622 0.0924391)
(8.84766 -0.897172 0.0857567)
(8.86892 -0.802121 0.0785408)
(8.84555 -0.710704 0.0725006)
(8.83609 -0.628296 0.066472)
(8.78458 -0.55225 0.0621577)
(8.75685 -0.487769 0.0570491)
(8.68973 -0.43006 0.0538849)
(8.65436 -0.383861 0.0493224)
(8.58008 -0.343045 0.0472296)
(8.54343 -0.312348 0.043078)
(8.46635 -0.285367 0.0420794)
(8.43173 -0.267139 0.0396976)
(8.33747 -0.246836 0.0391578)
(4.99582 -0.0570282 -0.0211005)
(5.06904 -0.166711 -0.0426162)
(5.132 -0.276446 -0.050431)
(5.19239 -0.389497 -0.0456486)
(5.28312 -0.508196 -0.0435597)
(5.35603 -0.633211 -0.034101)
(5.45628 -0.769648 -0.0299539)
(5.54483 -0.91377 -0.0189702)
(5.66547 -1.07334 -0.0132359)
(5.78473 -1.23874 -0.00272757)
(5.94015 -1.4181 0.00619907)
(6.11021 -1.59737 0.0145098)
(6.31762 -1.77651 0.0276339)
(6.55616 -1.94504 0.0343307)
(6.82432 -2.08194 0.0497469)
(7.12425 -2.19077 0.0583133)
(7.43203 -2.23628 0.0723549)
(7.7373 -2.23286 0.0841877)
(8.00837 -2.17576 0.0974629)
(8.25301 -2.09404 0.105754)
(8.46869 -1.97473 0.111697)
(8.66626 -1.86589 0.107542)
(8.84106 -1.7514 0.0954189)
(8.96307 -1.62498 0.0810083)
(9.05086 -1.479 0.0682966)
(9.07907 -1.32595 0.0593278)
(9.09843 -1.17504 0.0477644)
(9.06997 -1.02885 0.0428548)
(9.04992 -0.896001 0.0367597)
(8.99032 -0.775558 0.0312899)
(8.95016 -0.670693 0.025445)
(8.87275 -0.578209 0.0213972)
(8.82443 -0.501461 0.0166909)
(8.73891 -0.434965 0.0139857)
(8.6905 -0.382699 0.0103347)
(8.60283 -0.337222 0.00886285)
(8.55851 -0.30382 0.00617943)
(8.47103 -0.27361 0.00554775)
(8.4323 -0.253281 0.00306806)
(8.32735 -0.228258 0.00333343)
(4.99741 -0.0595042 -0.0214532)
(5.06569 -0.181202 -0.0412573)
(5.12771 -0.297006 -0.0510385)
(5.17572 -0.42454 -0.0431455)
(5.26281 -0.551221 -0.0446102)
(5.31791 -0.69568 -0.0297934)
(5.41253 -0.845849 -0.0318736)
(5.47915 -1.01684 -0.0119564)
(5.59502 -1.20112 -0.0158345)
(5.69157 -1.4024 0.00721219)
(5.85017 -1.62412 0.00469218)
(6.00351 -1.84689 0.0257334)
(6.23407 -2.08847 0.0315586)
(6.47708 -2.30338 0.0444531)
(6.79504 -2.50349 0.0631279)
(7.14154 -2.65112 0.0684734)
(7.51889 -2.71651 0.093202)
(7.8857 -2.70976 0.103283)
(8.22667 -2.62284 0.118338)
(8.56174 -2.55161 0.0988644)
(8.85656 -2.44841 0.0691198)
(9.02951 -2.26092 0.0476719)
(9.13425 -2.03641 0.0259793)
(9.17306 -1.80418 0.0170304)
(9.19001 -1.58652 0.00880313)
(9.16571 -1.3863 -0.00171307)
(9.13819 -1.20009 -0.00744395)
(9.07681 -1.03069 -0.0175525)
(9.02201 -0.876815 -0.0258151)
(8.93234 -0.740125 -0.0311737)
(8.86205 -0.62065 -0.0359411)
(8.75761 -0.518397 -0.0379917)
(8.6846 -0.433035 -0.0406828)
(8.5761 -0.362186 -0.040425)
(8.50937 -0.305969 -0.0419726)
(8.40277 -0.259693 -0.040029)
(8.34639 -0.225174 -0.0408688)
(8.24323 -0.1952 -0.0380203)
(8.19775 -0.174771 -0.0379545)
(8.07953 -0.147686 -0.0354155)
(4.99594 -0.0601732 -0.0204013)
(5.06476 -0.192947 -0.0422635)
(5.1171 -0.311289 -0.0492997)
(5.15934 -0.453252 -0.0437481)
(5.23132 -0.583279 -0.0423237)
(5.27458 -0.749751 -0.0292717)
(5.3486 -0.906856 -0.0300312)
(5.39946 -1.11337 -0.00815734)
(5.4896 -1.31187 -0.0163058)
(5.57231 -1.56907 0.0175965)
(5.70563 -1.8198 0.000162058)
(5.85423 -2.11932 0.0443556)
(6.08596 -2.42014 0.0261977)
(6.33525 -2.71048 0.0672617)
(6.72328 -3.00379 0.0654965)
(7.11598 -3.19409 0.0856794)
(7.59962 -3.29341 0.115569)
(8.11895 -3.28944 0.1)
(8.6229 -3.28773 0.0433023)
(8.92119 -3.04606 -0.00511621)
(9.07628 -2.70929 -0.017545)
(9.14824 -2.38557 -0.0397951)
(9.16331 -2.08099 -0.0495633)
(9.12708 -1.80581 -0.0692381)
(9.0662 -1.55339 -0.0820048)
(8.97437 -1.32309 -0.0902879)
(8.87942 -1.10816 -0.0958009)
(8.75921 -0.912008 -0.0991352)
(8.64519 -0.733448 -0.100526)
(8.50795 -0.579295 -0.0998462)
(8.39008 -0.446782 -0.0988311)
(8.25085 -0.339013 -0.0956295)
(8.14381 -0.250548 -0.09328)
(8.0124 -0.182894 -0.0882712)
(7.92416 -0.129733 -0.0855893)
(7.80441 -0.0910377 -0.0796648)
(7.73725 -0.0621833 -0.0772725)
(7.628 -0.0404766 -0.0713526)
(7.58085 -0.0253132 -0.068713)
(7.46621 -0.00563631 -0.0653132)
(4.99326 -0.0609804 -0.0184401)
(5.06316 -0.19778 -0.045011)
(5.10388 -0.321244 -0.0451042)
(5.13812 -0.468135 -0.0475963)
(5.19348 -0.606875 -0.0355619)
(5.21775 -0.783607 -0.0347094)
(5.27202 -0.956407 -0.02026)
(5.29133 -1.18525 -0.0140905)
(5.35703 -1.40943 -0.00500105)
(5.40659 -1.71728 0.0157823)
(5.50047 -2.00164 0.00741789)
(5.64998 -2.40856 0.0547306)
(5.82535 -2.74624 0.0251629)
(6.13635 -3.2003 0.0900568)
(6.55514 -3.56633 0.0548376)
(7.01027 -3.83082 0.127126)
(7.79537 -4.12294 0.0578319)
(8.51495 -4.08158 -0.0550357)
(8.83803 -3.63486 -0.0877837)
(8.99198 -3.15629 -0.106062)
(9.00091 -2.71759 -0.147597)
(8.91961 -2.30093 -0.174572)
(8.77862 -1.92721 -0.188975)
(8.60458 -1.58706 -0.193902)
(8.41468 -1.29115 -0.187217)
(8.21693 -1.03399 -0.177055)
(8.03151 -0.80037 -0.166104)
(7.84223 -0.592777 -0.156536)
(7.66688 -0.410262 -0.147945)
(7.4886 -0.260569 -0.139917)
(7.33537 -0.136803 -0.132178)
(7.18007 -0.0447229 -0.123992)
(7.058 0.0285546 -0.116598)
(6.92942 0.0753323 -0.10833)
(6.84002 0.111967 -0.101628)
(6.73616 0.129104 -0.0938574)
(6.67658 0.144625 -0.0882042)
(6.59238 0.146099 -0.0819949)
(6.55937 0.152607 -0.0771119)
(6.48898 0.153983 -0.0768011)
(4.98609 -0.0606172 -0.0184469)
(5.06589 -0.196848 -0.0458738)
(5.08181 -0.323468 -0.0432091)
(5.12065 -0.4694 -0.049177)
(5.14422 -0.616746 -0.0309749)
(5.15516 -0.793692 -0.0384451)
(5.17859 -0.988809 -0.0104389)
(5.15354 -1.21886 -0.0220481)
(5.20395 -1.49456 0.0121152)
(5.16237 -1.80943 0.00442618)
(5.26753 -2.19181 0.0275079)
(5.31064 -2.6445 0.051859)
(5.47241 -3.10191 0.0338781)
(5.84211 -3.75185 0.090222)
(6.16704 -4.12268 0.0802619)
(6.95696 -4.85025 0.0397745)
(8.10953 -5.04052 -0.190545)
(8.63541 -4.3622 -0.202694)
(8.7142 -3.65461 -0.260924)
(8.56305 -2.95701 -0.301388)
(8.27082 -2.32528 -0.316732)
(7.92951 -1.78942 -0.313429)
(7.56818 -1.36085 -0.291355)
(7.22998 -1.0131 -0.260645)
(6.91003 -0.75744 -0.216299)
(6.63061 -0.550238 -0.176008)
(6.40024 -0.360704 -0.148143)
(6.19424 -0.188665 -0.131759)
(6.01468 -0.0375724 -0.122131)
(5.85048 0.0832527 -0.115471)
(5.71627 0.178272 -0.110168)
(5.59617 0.242982 -0.10409)
(5.50585 0.289405 -0.099373)
(5.42501 0.31143 -0.0923431)
(5.37093 0.323736 -0.0871793)
(5.32482 0.319652 -0.0804916)
(5.29799 0.314284 -0.0774824)
(5.27968 0.300856 -0.0714833)
(5.27569 0.287851 -0.0722613)
(5.29618 0.27728 -0.0770823)
(4.97385 -0.0612204 -0.0207101)
(5.07703 -0.191472 -0.0438362)
(5.04654 -0.314544 -0.0450077)
(5.11629 -0.459018 -0.0459756)
(5.06512 -0.602863 -0.0320855)
(5.11274 -0.786057 -0.0355202)
(5.03051 -0.97911 -0.00773154)
(5.03743 -1.22854 -0.0236912)
(4.96496 -1.51878 0.0254423)
(4.9058 -1.86464 -0.00892573)
(4.94158 -2.33176 0.0554352)
(4.81909 -2.79711 0.0359704)
(5.08048 -3.5351 0.0291408)
(5.22421 -4.13593 0.1406)
(5.60945 -5.0163 -0.0407821)
(7.05627 -6.09481 -0.348432)
(8.10293 -5.35267 -0.354346)
(8.22158 -4.19676 -0.405831)
(7.67531 -3.04472 -0.423987)
(6.99844 -2.08645 -0.423098)
(6.31581 -1.37466 -0.394202)
(5.74432 -0.872534 -0.341456)
(5.24824 -0.543362 -0.266369)
(4.87878 -0.324922 -0.190566)
(4.52792 -0.230246 -0.0891037)
(4.28813 -0.156853 -0.0273361)
(4.13267 -0.042847 -0.00931847)
(4.01057 0.0867946 -0.0170729)
(3.9112 0.211149 -0.0334479)
(3.82866 0.310832 -0.0480005)
(3.7732 0.385503 -0.0582944)
(3.7363 0.428952 -0.0632118)
(3.7229 0.455433 -0.0672992)
(3.72702 0.456326 -0.0660752)
(3.74213 0.45045 -0.0647158)
(3.7752 0.430942 -0.062469)
(3.80929 0.411507 -0.0621619)
(3.87744 0.380851 -0.0624495)
(3.92444 0.360399 -0.0643622)
(4.0651 0.336643 -0.0847857)
(4.97533 -0.0613536 -0.0207975)
(5.07377 -0.180969 -0.042817)
(5.03328 -0.293784 -0.04592)
(5.08976 -0.433507 -0.0430736)
(5.00731 -0.563169 -0.0348104)
(5.04484 -0.75423 -0.0286376)
(4.88174 -0.926216 -0.0131829)
(4.9115 -1.20109 -0.0143281)
(4.65578 -1.46373 0.0245356)
(4.68194 -1.88198 -0.013228)
(4.40833 -2.30236 0.0901448)
(4.34865 -2.97816 -0.0325376)
(4.40958 -3.69421 0.12688)
(4.23866 -4.66772 0.0270136)
(5.10141 -6.16105 -0.480144)
(6.55908 -6.69238 -0.619813)
(7.2774 -5.04469 -0.571182)
(6.12482 -2.94876 -0.467888)
(4.54636 -1.39552 -0.376589)
(3.54731 -0.51488 -0.302099)
(2.89624 -0.0853218 -0.226837)
(2.51375 0.0899532 -0.147533)
(2.2324 0.120539 -0.0682562)
(2.04279 0.167782 0.0473178)
(1.6777 -0.0497181 0.203985)
(1.68236 -0.165088 0.19614)
(1.73236 -0.113958 0.151108)
(1.75625 0.0338701 0.0821516)
(1.77295 0.200759 0.0239197)
(1.79798 0.331337 -0.0140107)
(1.84333 0.419863 -0.0361033)
(1.90681 0.469069 -0.0477314)
(1.98646 0.489075 -0.0545144)
(2.08378 0.487855 -0.0568988)
(2.1856 0.473843 -0.05885)
(2.31066 0.446264 -0.0589706)
(2.41721 0.417232 -0.0608943)
(2.57914 0.380845 -0.0655022)
(2.683 0.353838 -0.0720792)
(2.96489 0.325815 -0.112987)
(4.98948 -0.0613116 -0.0213327)
(5.05538 -0.152744 -0.0396699)
(5.04272 -0.272752 -0.0483551)
(5.03781 -0.371823 -0.0381347)
(4.98279 -0.524521 -0.0396774)
(4.93618 -0.652931 -0.0194424)
(4.79328 -0.867549 -0.0251103)
(4.70139 -1.06407 0.00794711)
(4.43396 -1.38461 -0.00495173)
(4.31984 -1.72543 0.0375299)
(3.86915 -2.23231 0.0348645)
(3.79822 -2.84923 0.0097167)
(3.30104 -3.68016 0.133395)
(3.04925 -4.912 -0.312945)
(4.05787 -6.30722 -0.825815)
(4.39448 -7.48156 -0.809837)
(5.15513 -4.58526 -0.747626)
(0.843853 -1.05829 -0.263327)
(-0.0545234 0.182561 -0.0714435)
(-0.0305977 0.25127 -0.00390473)
(-0.0110332 0.173793 0.017802)
(0.0459369 0.105874 0.0406448)
(0.0577108 0.0530347 0.0803782)
(-0.00905083 -0.052741 0.169117)
(0.0330783 -0.762929 0.346355)
(0.0441701 -0.772154 0.298983)
(0.125478 -0.4653 0.193461)
(0.0892761 -0.123327 0.0988265)
(0.102417 0.129161 0.0298235)
(0.161754 0.288429 -0.0135418)
(0.266318 0.380577 -0.0397771)
(0.402102 0.425959 -0.0548233)
(0.560488 0.440332 -0.0638324)
(0.73526 0.434984 -0.0690837)
(0.915185 0.41618 -0.0731048)
(1.11321 0.389029 -0.0750307)
(1.29202 0.356598 -0.0797238)
(1.53141 0.320901 -0.086282)
(1.69282 0.290323 -0.102279)
(2.11343 0.266095 -0.168319)
(4.99413 -0.0439425 -0.0207654)
(5.04805 -0.13452 -0.0394974)
(5.03945 -0.218987 -0.0471092)
(5.00131 -0.320275 -0.0387842)
(4.94751 -0.427585 -0.0370639)
(4.84086 -0.562781 -0.0210118)
(4.6996 -0.719839 -0.0195686)
(4.49813 -0.91806 0.00613912)
(4.23339 -1.17543 0.000199916)
(3.92308 -1.48992 0.0443923)
(3.45246 -1.9349 0.00629494)
(3.08255 -2.47669 0.0696467)
(2.20888 -3.2581 -0.0523867)
(1.99537 -4.22213 -0.57234)
(1.61667 -5.38841 -1.02953)
(0.815922 -6.13271 -0.860017)
(0.0233487 -1.07595 0.318681)
(-0.657381 -1.00207 0.292745)
(-0.883959 -0.479246 0.151693)
(-1.07113 -0.148195 0.0716089)
(-1.08652 0.0745439 0.00823556)
(-1.01729 0.21305 -0.0300761)
(-0.872397 0.288998 -0.0554733)
(-0.684862 0.326567 -0.0726189)
(-0.469353 0.337158 -0.0858913)
(-0.23767 0.33118 -0.0968649)
(0.00174289 0.314018 -0.104819)
(0.251271 0.291222 -0.11028)
(0.491651 0.261691 -0.116552)
(0.783644 0.231607 -0.12505)
(0.999629 0.201291 -0.153989)
(1.53773 0.186821 -0.244585)
(4.99063 -0.0338629 -0.0199815)
(5.05061 -0.100213 -0.0403855)
(5.02457 -0.167121 -0.0445764)
(4.98557 -0.237251 -0.0411636)
(4.89874 -0.326481 -0.0331732)
(4.7838 -0.422631 -0.0247418)
(4.59226 -0.549081 -0.0125442)
(4.36037 -0.698251 -0.00108563)
(4.02408 -0.898435 0.0143711)
(3.62576 -1.14591 0.026217)
(3.08363 -1.48515 0.0335231)
(2.48073 -1.89655 0.0258025)
(1.66007 -2.44688 -0.117847)
(1.15289 -2.99866 -0.624561)
(1.08542 -3.42445 -1.04595)
(0.765848 -3.34864 -0.777584)
(-0.128365 -0.961849 0.262354)
(-1.06363 -0.836243 0.271508)
(-1.49473 -0.426883 0.135716)
(-1.75825 -0.172792 0.0615831)
(-1.81487 0.00507291 -0.00385741)
(-1.74205 0.119455 -0.0463469)
(-1.58539 0.180347 -0.0731444)
(-1.37017 0.211769 -0.0930846)
(-1.12395 0.221185 -0.108129)
(-0.857619 0.216951 -0.120876)
(-0.58147 0.20453 -0.132333)
(-0.298761 0.187011 -0.144238)
(-0.0172278 0.164389 -0.157783)
(0.302635 0.143009 -0.17316)
(0.564613 0.118498 -0.214356)
(1.18448 0.114073 -0.322349)
(4.99474 -0.0165461 -0.0200027)
(5.04453 -0.0719588 -0.0385566)
(5.02174 -0.100768 -0.0454102)
(4.96704 -0.146495 -0.039247)
(4.87057 -0.201828 -0.0348073)
(4.73572 -0.264459 -0.0212225)
(4.52105 -0.341994 -0.0154834)
(4.25805 -0.437774 0.00484924)
(3.87103 -0.561738 0.00878014)
(3.43073 -0.718861 0.0354388)
(2.78189 -0.923157 0.0218465)
(2.12849 -1.17835 0.0265226)
(1.07228 -1.50498 -0.167567)
(0.667549 -1.89272 -0.722877)
(0.496478 -2.24567 -1.05589)
(0.346063 -2.1 -0.732264)
(-0.184053 -0.600836 0.260119)
(-1.24761 -0.547435 0.28165)
(-1.79773 -0.279661 0.126845)
(-2.0949 -0.129978 0.0499085)
(-2.19305 -0.0362812 -0.00704912)
(-2.13615 0.0588276 -0.0656545)
(-1.9743 0.0903369 -0.0902041)
(-1.75253 0.113555 -0.11329)
(-1.49031 0.120102 -0.128987)
(-1.20802 0.117917 -0.142452)
(-0.913049 0.11075 -0.154886)
(-0.612062 0.0992695 -0.168852)
(-0.307084 0.0846596 -0.187603)
(0.0265901 0.0722008 -0.213679)
(0.320414 0.057598 -0.265401)
(0.986234 0.0585244 -0.382803)
(5.00014 -0.00369055 -0.0177445)
(5.03678 -0.0281322 -0.0386253)
(5.01476 -0.0356885 -0.044433)
(4.95487 -0.0475352 -0.0412281)
(4.8597 -0.0684645 -0.0335814)
(4.7062 -0.0885318 -0.0227839)
(4.49304 -0.116812 -0.0131221)
(4.19532 -0.147201 0.00210482)
(3.81066 -0.192215 0.012466)
(3.3108 -0.241049 0.0295138)
(2.67994 -0.313521 0.0242244)
(1.93395 -0.38509 0.006289)
(0.990244 -0.482796 -0.196355)
(0.560936 -0.566022 -0.723894)
(0.430991 -0.609363 -1.07613)
(0.359377 -0.567021 -0.740047)
(-0.212347 -0.207527 0.260358)
(-1.32592 -0.186476 0.282944)
(-1.91645 -0.0978296 0.120803)
(-2.22763 -0.0475161 0.0394275)
(-2.33711 -0.0207428 -0.00864461)
(-2.31302 0.0177003 -0.0785354)
(-2.13599 0.0264179 -0.101327)
(-1.92327 0.0351679 -0.125481)
(-1.64987 0.0375667 -0.141909)
(-1.36448 0.036841 -0.155352)
(-1.06088 0.0346144 -0.168273)
(-0.752921 0.0306194 -0.182805)
(-0.437829 0.0254831 -0.203306)
(-0.0977192 0.0212799 -0.235596)
(0.211984 0.0166635 -0.293858)
(0.897294 0.0176938 -0.415019)
(5.00015 0.00369002 -0.0177382)
(5.03676 0.0281219 -0.0386241)
(5.01476 0.035686 -0.0444338)
(4.95485 0.0475336 -0.04123)
(4.8597 0.0684571 -0.0335847)
(4.70619 0.0885201 -0.0227869)
(4.49305 0.116797 -0.0131257)
(4.19532 0.147182 0.00210075)
(3.81068 0.192192 0.0124668)
(3.31075 0.241025 0.0295025)
(2.68005 0.313491 0.0242298)
(1.93384 0.38507 0.00627932)
(0.99041 0.482767 -0.196358)
(0.560943 0.565996 -0.723878)
(0.431002 0.609347 -1.07613)
(0.359378 0.567023 -0.740046)
(-0.212355 0.207408 0.260359)
(-1.32594 0.186381 0.282945)
(-1.91647 0.097795 0.120802)
(-2.22766 0.0475156 0.0394259)
(-2.33714 0.0207623 -0.00864459)
(-2.31305 -0.0176526 -0.0785369)
(-2.13602 -0.0263619 -0.101329)
(-1.9233 -0.0351043 -0.125482)
(-1.64991 -0.0375002 -0.14191)
(-1.36452 -0.0367741 -0.155353)
(-1.06092 -0.0345484 -0.168273)
(-0.752955 -0.0305562 -0.182805)
(-0.43786 -0.0254241 -0.203307)
(-0.0977504 -0.0212255 -0.235597)
(0.211955 -0.016617 -0.293861)
(0.897265 -0.0176572 -0.415022)
(4.99475 0.0165277 -0.0199944)
(5.04449 0.0719927 -0.0385592)
(5.02173 0.100765 -0.0454028)
(4.96704 0.146487 -0.0392494)
(4.87055 0.201823 -0.0348102)
(4.73572 0.264446 -0.0212255)
(4.52104 0.341984 -0.0154863)
(4.25807 0.437752 0.0048471)
(3.87101 0.561721 0.00877467)
(3.43078 0.718828 0.0354394)
(2.78185 0.923132 0.0218385)
(2.12859 1.1783 0.0265202)
(1.07226 1.50496 -0.167544)
(0.667581 1.8927 -0.722904)
(0.496507 2.24569 -1.05588)
(0.346072 2.10002 -0.732265)
(-0.184072 0.600736 0.260125)
(-1.24766 0.547348 0.281654)
(-1.7978 0.279632 0.126842)
(-2.09498 0.129983 0.0499041)
(-2.19315 0.036319 -0.0070477)
(-2.13626 -0.0587767 -0.0656587)
(-1.97441 -0.0902743 -0.0902064)
(-1.75265 -0.113488 -0.113292)
(-1.49042 -0.120033 -0.128988)
(-1.20813 -0.117849 -0.142452)
(-0.913157 -0.110684 -0.154886)
(-0.612166 -0.0992061 -0.168852)
(-0.307184 -0.0845999 -0.187604)
(0.0264929 -0.0721456 -0.213683)
(0.320323 -0.057551 -0.265408)
(0.986146 -0.0584877 -0.382809)
(4.99063 0.0338609 -0.0199812)
(5.0506 0.100214 -0.0403827)
(5.02457 0.167116 -0.044573)
(4.98557 0.237246 -0.0411621)
(4.89874 0.32647 -0.0331713)
(4.78378 0.422623 -0.0247408)
(4.59226 0.549063 -0.0125426)
(4.36036 0.698236 -0.0010853)
(4.02408 0.898405 0.0143734)
(3.62575 1.14589 0.0262152)
(3.08366 1.4851 0.0335215)
(2.48071 1.89652 0.0258109)
(1.66012 2.44682 -0.117899)
(1.15298 2.99864 -0.624471)
(1.08545 3.42441 -1.04594)
(0.765863 3.34864 -0.777573)
(-0.128401 0.961775 0.262355)
(-1.06374 0.836195 0.271513)
(-1.49489 0.426874 0.135713)
(-1.75842 0.172815 0.0615797)
(-1.81507 -0.00501549 -0.00385701)
(-1.74225 -0.119394 -0.0463504)
(-1.5856 -0.180277 -0.0731458)
(-1.37037 -0.211698 -0.0930853)
(-1.12415 -0.221115 -0.108128)
(-0.857817 -0.216884 -0.120873)
(-0.581662 -0.204466 -0.132331)
(-0.298946 -0.18695 -0.144235)
(-0.0174023 -0.164332 -0.157783)
(0.302465 -0.142957 -0.173165)
(0.564452 -0.118453 -0.214362)
(1.18432 -0.114038 -0.322355)
(4.99413 0.0439469 -0.0207655)
(5.04805 0.134514 -0.039496)
(5.03945 0.218991 -0.0471087)
(5.00131 0.320264 -0.0387826)
(4.9475 0.427586 -0.0370647)
(4.84085 0.562761 -0.0210095)
(4.69958 0.719836 -0.0195704)
(4.49813 0.918026 0.0061423)
(4.23336 1.17542 0.000199262)
(3.92307 1.48987 0.0443881)
(3.4525 1.93486 0.00631185)
(3.08244 2.47664 0.0696316)
(2.20906 3.25801 -0.0523662)
(1.99536 4.22208 -0.572358)
(1.61677 5.3884 -1.02955)
(0.815956 6.13279 -0.860003)
(0.0232695 1.07603 0.31866)
(-0.657574 1.00209 0.292725)
(-0.884226 0.479257 0.151676)
(-1.07143 0.148231 0.0716023)
(-1.08682 -0.074487 0.00823415)
(-1.0176 -0.212983 -0.0300757)
(-0.872707 -0.288929 -0.0554716)
(-0.685167 -0.3265 -0.072615)
(-0.469649 -0.337096 -0.0858852)
(-0.237955 -0.331123 -0.0968563)
(0.00147091 -0.313966 -0.104813)
(0.251009 -0.291174 -0.110277)
(0.491401 -0.261648 -0.116548)
(0.783404 -0.23157 -0.125047)
(0.9994 -0.201259 -0.153987)
(1.53752 -0.186797 -0.244585)
(4.98948 0.0613122 -0.0213314)
(5.05538 0.152743 -0.0396719)
(5.04271 0.272749 -0.0483523)
(5.03782 0.37182 -0.0381378)
(4.98277 0.524513 -0.039673)
(4.93618 0.652927 -0.0194475)
(4.79325 0.867531 -0.0251035)
(4.70138 1.06406 0.00793953)
(4.43393 1.38458 -0.00494201)
(4.31982 1.7254 0.0375123)
(3.86916 2.23223 0.0348798)
(3.79815 2.8492 0.00970593)
(3.30112 3.68003 0.133417)
(3.04921 4.91189 -0.312948)
(4.05807 6.30714 -0.825794)
(4.39465 7.48168 -0.809832)
(5.15533 4.58543 -0.747618)
(0.843877 1.05843 -0.263296)
(-0.0547425 -0.182529 -0.0713849)
(-0.0308988 -0.251226 -0.00386643)
(-0.0113927 -0.173746 0.0178233)
(0.0455719 -0.105835 0.0406538)
(0.0573677 -0.0529999 0.080383)
(-0.00942368 0.052875 0.169122)
(0.0328177 0.763102 0.346339)
(0.0438759 0.772315 0.29897)
(0.125211 0.465363 0.193449)
(0.0889424 0.123384 0.0988293)
(0.102048 -0.129102 0.0298323)
(0.161374 -0.288373 -0.0135318)
(0.26595 -0.380524 -0.0397672)
(0.40175 -0.425914 -0.0548131)
(0.560152 -0.440294 -0.0638209)
(0.734939 -0.434953 -0.0690708)
(0.914879 -0.416155 -0.0730909)
(1.11292 -0.389011 -0.0750166)
(1.29174 -0.356584 -0.0797092)
(1.53114 -0.320892 -0.0862675)
(1.69256 -0.290317 -0.102265)
(2.11319 -0.266094 -0.168306)
(4.97533 0.0613559 -0.0207983)
(5.07376 0.180968 -0.0428151)
(5.03327 0.293785 -0.0459219)
(5.08976 0.433503 -0.0430704)
(5.0073 0.56317 -0.034814)
(5.04482 0.75422 -0.0286326)
(4.88173 0.926217 -0.0131897)
(4.91147 1.20106 -0.0143195)
(4.65575 1.46373 0.024522)
(4.6819 1.88192 -0.0132158)
(4.40829 2.30234 0.0901162)
(4.34863 2.97803 -0.0325304)
(4.40956 3.69412 0.126858)
(4.2388 4.66748 0.0270255)
(5.10152 6.16077 -0.480047)
(6.55941 6.69225 -0.619711)
(7.27771 5.04467 -0.571058)
(6.12513 2.94889 -0.467717)
(4.54647 1.39561 -0.376394)
(3.54722 0.514889 -0.301901)
(2.89599 0.0852776 -0.226662)
(2.51339 -0.0900194 -0.147395)
(2.23198 -0.120605 -0.0681469)
(2.04232 -0.167849 0.0474199)
(1.67719 0.0497602 0.204063)
(1.68191 0.165189 0.196191)
(1.73196 0.114053 0.151145)
(1.75588 -0.033804 0.0821787)
(1.7726 -0.200711 0.0239463)
(1.79766 -0.331305 -0.0139851)
(1.84304 -0.419846 -0.0360791)
(1.90654 -0.469064 -0.0477073)