/*--------------------------------*- C++ -*----------------------------------*\
| =========                 |                                                 |
| \\      /  F ield         | OpenFOAM: The Open Source CFD Toolbox           |
|  \\    /   O peration     | Version:  2412                                  |
|   \\  /    A nd           | Website:  www.openfoam.com                      |
|    \\/     M anipulation  |                                                 |
\*---------------------------------------------------------------------------*/
// * * * * * * * * * * * * * * * * * * * * * * * * * * * * * * * * * * * * * //
FoamFile
{
    version         2;
    format          ascii;
    arch            "LSB;label=32;scalar=64";
    class           volScalarField;
    location        "0";
    object          k;
}

dimensions      [ 0 2 -2 0 0 0 0 ];

internalField   nonuniform List<scalar> 
47360
(
1.50329
1.29283
1.14612
1.04184
0.965487
0.908315
0.864382
0.830045
0.802521
0.780262
0.761709
0.746787
0.734695
0.7246
0.716217
0.708895
0.70268
0.696933
0.691963
0.687045
0.682735
0.678158
0.674137
0.669587
0.665638
0.660924
0.656944
0.651958
0.647933
0.642623
0.638598
0.632945
0.629006
0.62303
0.619267
0.61303
0.609505
0.603089
0.599824
0.591947
1.50331
1.29281
1.14615
1.04182
0.965388
0.908223
0.86423
0.829887
0.802329
0.780028
0.7615
0.746701
0.734619
0.724644
0.716273
0.709073
0.702877
0.697248
0.692299
0.687479
0.683183
0.678666
0.674644
0.670107
0.666143
0.661388
0.657382
0.652306
0.648243
0.642808
0.63873
0.632941
0.628933
0.622812
0.618966
0.61258
0.608972
0.602409
0.599074
0.591022
1.50332
1.29279
1.14613
1.04176
0.965269
0.90804
0.864003
0.82956
0.802013
0.779554
0.761142
0.746506
0.73453
0.724716
0.716466
0.709433
0.703378
0.697916
0.69311
0.68843
0.68425
0.679818
0.675869
0.671337
0.667387
0.662554
0.658504
0.653275
0.649124
0.643475
0.639277
0.633229
0.629075
0.622678
0.618673
0.612001
0.608238
0.601381
0.597908
0.5895
1.50333
1.29277
1.14611
1.04165
0.965091
0.907742
0.863661
0.829046
0.801527
0.778799
0.760605
0.746192
0.734414
0.724822
0.716802
0.710018
0.704239
0.699043
0.694533
0.690091
0.686176
0.681908
0.678145
0.673675
0.669818
0.664935
0.660885
0.655493
0.651248
0.645335
0.640973
0.634584
0.630221
0.623436
0.619198
0.612115
0.608117
0.600847
0.597172
0.588278
1.50334
1.29276
1.14607
1.0415
0.964822
0.907368
0.863103
0.828436
0.800647
0.778006
0.760051
0.745868
0.734344
0.725039
0.717349
0.710945
0.705596
0.700856
0.69684
0.69286
0.68942
0.685534
0.682163
0.677943
0.674358
0.669572
0.66566
0.660216
0.655987
0.649888
0.645431
0.63874
0.634195
0.627019
0.622546
0.615013
0.610762
0.603012
0.599089
0.589617
1.50333
1.29278
1.14597
1.04132
0.964443
0.906876
0.862324
0.827631
0.799397
0.777006
0.75934
0.745422
0.734235
0.725324
0.718112
0.712307
0.707621
0.703683
0.700487
0.697415
0.694817
0.691842
0.689282
0.685926
0.683104
0.679063
0.675824
0.670926
0.667211
0.661407
0.657252
0.650603
0.646143
0.638796
0.634237
0.626381
0.621938
0.613772
0.609621
0.5996
1.50331
1.29279
1.14585
1.0411
0.963939
0.906213
0.861324
0.826482
0.79787
0.775794
0.758415
0.744831
0.734062
0.725696
0.719175
0.714286
0.710675
0.708143
0.706454
0.705079
0.70428
0.703556
0.703236
0.702812
0.702457
0.701671
0.700771
0.698815
0.697047
0.693353
0.690607
0.68507
0.681461
0.674489
0.670232
0.662276
0.657767
0.649223
0.644819
0.634146
1.50341
1.29267
1.14586
1.04064
0.963422
0.90517
0.860193
0.824736
0.796219
0.774497
0.757226
0.744125
0.733747
0.726227
0.720603
0.717241
0.715583
0.715808
0.71685
0.71916
0.723909
0.729944
0.738305
0.746739
0.756223
0.764078
0.771762
0.776547
0.780578
0.781196
0.780413
0.777905
0.774722
0.767972
0.763396
0.754179
0.748796
0.738389
0.732952
0.719815
1.50373
1.29221
1.14624
1.0396
0.963163
0.903417
0.85905
0.822315
0.794227
0.772683
0.755607
0.743071
0.73321
0.726855
0.722541
0.722705
0.724463
0.728831
0.738036
0.75434
0.779194
0.809475
0.843354
0.876551
0.907456
0.933174
0.95411
0.968375
0.978036
0.981204
0.98014
0.976214
0.97075
0.959513
0.951463
0.936996
0.928171
0.912441
0.904341
0.885149
1.50397
1.29183
1.14649
1.03844
0.962967
0.90123
0.857575
0.819709
0.792577
0.770271
0.75382
0.741529
0.732508
0.727232
0.727908
0.731503
0.741029
0.761614
0.805171
0.873607
0.960095
1.04699
1.13017
1.20021
1.25766
1.29989
1.32921
1.34665
1.35204
1.3498
1.34338
1.32906
1.31495
1.29263
1.27612
1.25077
1.23499
1.20866
1.19527
1.16378
1.50365
1.29229
1.14569
1.03831
0.961369
0.89967
0.85518
0.816557
0.790175
0.766847
0.75134
0.739279
0.731241
0.731567
0.73605
0.751111
0.791137
0.880581
1.05405
1.25101
1.44319
1.60436
1.73866
1.83338
1.90525
1.94721
1.97654
1.97632
1.96908
1.9497
1.9195
1.88022
1.84268
1.79633
1.75901
1.71031
1.67802
1.62839
1.60309
1.54465
1.50295
1.29336
1.14397
1.03909
0.957998
0.89908
0.851154
0.813624
0.78634
0.762808
0.748395
0.73557
0.732468
0.73626
0.754602
0.815924
0.98391
1.34174
1.76109
2.12495
2.4133
2.6214
2.7744
2.85371
2.91901
2.94401
2.93095
2.89245
2.8177
2.72642
2.62942
2.53131
2.44053
2.349
2.27154
2.18727
2.12669
2.04516
2.00371
1.9113
1.50254
1.29372
1.14284
1.03877
0.95563
0.897228
0.847445
0.810816
0.781168
0.75906
0.744016
0.732316
0.73385
0.748445
0.820556
1.05832
1.69705
2.53621
3.18156
3.64309
3.95364
4.15988
4.23728
4.21543
4.12756
3.95129
3.7458
3.54229
3.35715
3.18947
3.04066
2.90464
2.78443
2.67215
2.57537
2.4787
2.40352
2.31161
2.2617
2.15673
1.50239
1.29345
1.14235
1.03752
0.953582
0.894755
0.84256
0.807568
0.77492
0.755846
0.736787
0.729982
0.73746
0.786863
1.05988
1.83586
3.47099
4.65164
5.36449
5.63341
5.60711
5.4742
5.21695
4.93649
4.55162
4.15358
3.80521
3.51757
3.29947
3.13592
3.0087
2.90065
2.80681
2.72183
2.64361
2.56481
2.49552
2.41803
2.36693
2.27871
1.50263
1.29315
1.14233
1.03611
0.952138
0.891751
0.837995
0.803848
0.768424
0.751396
0.727848
0.728741
0.748604
0.907598
1.77187
3.78662
6.32657
6.88777
6.77407
6.50318
6.09469
5.63069
5.14106
4.65809
3.95663
3.40913
3.07324
2.90503
2.82727
2.79073
2.76382
2.72931
2.68545
2.63419
2.58106
2.5243
2.46959
2.41211
2.36383
2.31921
1.50372
1.29191
1.14359
1.03333
0.952107
0.887221
0.835731
0.797319
0.764821
0.742557
0.722078
0.726143
0.774831
1.22317
3.2471
5.97947
7.82669
7.53226
6.6045
5.90619
5.40111
4.96316
4.50825
3.91157
2.69823
2.28407
2.21499
2.2692
2.35048
2.42995
2.48516
2.50862
2.51209
2.49912
2.47277
2.43806
2.40189
2.36374
2.33127
2.32794
1.50398
1.2917
1.14346
1.0322
0.950664
0.884051
0.832911
0.792306
0.760056
0.734642
0.716482
0.723569
0.826535
1.6273
4.12248
6.71603
1.67279
1.60208
1.75727
1.95488
2.11724
2.24012
2.32338
2.36512
2.38051
2.37859
2.36511
2.3457
2.32674
2.30547
2.30421
2.33225
1.50365
1.29216
1.14242
1.03212
0.948453
0.88194
0.829718
0.788543
0.755028
0.728747
0.710736
0.720551
0.880157
1.82569
4.31588
5.97361
1.33265
1.36859
1.58608
1.80737
1.98703
2.12744
2.22412
2.283
2.31086
2.3191
2.31335
2.29656
2.27789
2.26897
2.28605
2.34057
1.50397
1.29179
1.14239
1.03134
0.947428
0.88026
0.827729
0.78565
0.751546
0.724345
0.706128
0.718123
0.921607
1.97866
4.34867
5.3428
1.20708
1.29194
1.5231
1.74022
1.91772
2.06622
2.16609
2.23491
2.27164
2.28615
2.28801
2.27794
2.26264
2.25377
2.28212
2.3495
1.5042
1.29175
1.14188
1.03118
0.94687
0.879308
0.826835
0.784276
0.74981
0.722257
0.703908
0.716331
0.934621
2.00403
4.28826
5.06531
1.16227
1.26949
1.50346
1.71527
1.88863
2.04131
2.14075
2.21347
2.25444
2.27256
2.27679
2.27094
2.25901
2.25176
2.28351
2.35474
1.5042
1.29175
1.14188
1.03118
0.946871
0.879308
0.826835
0.784277
0.749821
0.722224
0.703969
0.716204
0.934769
2.00393
4.28827
5.06531
1.16227
1.26948
1.50346
1.71526
1.88862
2.0413
2.14074
2.21345
2.25442
2.27254
2.27678
2.27092
2.25899
2.25174
2.28349
2.35472
1.50398
1.29179
1.14239
1.03134
0.947428
0.880261
0.827731
0.78565
0.751541
0.724372
0.706097
0.718209
0.921383
1.97875
4.34863
5.3428
1.20706
1.29193
1.52308
1.7402
1.91768
2.06617
2.16604
2.23486
2.27158
2.28609
2.28795
2.27788
2.26258
2.25371
2.28206
2.34943
1.50365
1.29216
1.14242
1.03212
0.948452
0.881939
0.829717
0.788546
0.755021
0.728738
0.710776
0.720471
0.880257
1.8258
4.31577
5.9736
1.33261
1.36856
1.58605
1.80732
1.98696
2.12737
2.22404
2.28291
2.31075
2.319
2.31324
2.29645
2.27777
2.26886
2.28594
2.34045
1.50398
1.2917
1.14346
1.0322
0.950663
0.88405
0.83291
0.792307
0.760051
0.73462
0.716552
0.723363
0.826987
1.62586
4.12302
6.71599
1.67268
1.60199
1.75719
1.95479
2.11713
2.23999
2.32325
2.36497
2.38036
2.37842
2.36493
2.34552
2.32656
2.3053
2.30404
2.33208
1.50372
1.29191
1.14359
1.03333
0.952105
0.887222
0.83573
0.79732
0.764816
0.742557
0.722104
0.726108
0.774845
1.22365
3.24682
5.97936
7.82666
7.53226
6.60439
5.90598
5.40083
4.96282
4.50787
3.91116
2.69791
2.28382
2.21477
2.269
2.35028
2.42975
2.48495
2.50841
2.51186
2.49889
2.47254
2.43782
2.40165
2.3635
2.33103
2.32771
1.50263
1.29315
1.14233
1.03611
0.952139
0.89175
0.837996
0.803844
0.768424
0.751396
0.727862
0.728759
0.748625
0.907744
1.77167
3.78644
6.3263
6.8876
6.77388
6.50293
6.09439
5.63035
5.14069
4.65775
3.95627
3.40879
3.07293
2.90475
2.82701
2.79047
2.76356
2.72905
2.68519
2.63392
2.58078
2.52402
2.4693
2.41182
2.36354
2.31892
1.50239
1.29345
1.14235
1.03753
0.953579
0.894758
0.842558
0.807571
0.774917
0.755854
0.73678
0.729993
0.737517
0.786822
1.05996
1.83568
3.47078
4.65135
5.36427
5.63323
5.60692
5.47402
5.21676
4.93629
4.55139
4.15339
3.80503
3.51733
3.29922
3.13566
3.00844
2.90038
2.80653
2.72154
2.64332
2.56451
2.4952
2.41771
2.36661
2.27838
1.50254
1.29372
1.14284
1.03878
0.955624
0.897233
0.84744
0.810822
0.78116
0.759069
0.744006
0.73232
0.733883
0.748348
0.820776
1.0579
1.69688
2.53586
3.18113
3.64273
3.95332
4.15962
4.23707
4.21523
4.12737
3.95111
3.74562
3.5421
3.35695
3.18926
3.04043
2.90439
2.78415
2.67185
2.57505
2.47836
2.40317
2.31125
2.26133
2.15635
1.50295
1.29337
1.14397
1.03909
0.957995
0.89908
0.851153
0.813623
0.786341
0.762803
0.748402
0.735555
0.732499
0.73622
0.754805
0.815386
0.984219
1.34109
1.76053
2.12435
2.4127
2.6208
2.77383
2.85316
2.9185
2.94355
2.93051
2.89204
2.81731
2.72604
2.62904
2.53093
2.44014
2.3486
2.27114
2.18685
2.12626
2.04472
2.00327
1.91085
1.50365
1.29229
1.14569
1.03831
0.961369
0.89967
0.85518
0.816556
0.790176
0.766843
0.751344
0.739273
0.731246
0.731564
0.736142
0.75086
0.791482
0.880319
1.05371
1.25054
1.44258
1.60369
1.73796
1.83265
1.90452
1.94647
1.97582
1.9756
1.96838
1.94901
1.91883
1.87956
1.84204
1.79569
1.75838
1.70969
1.67741
1.62779
1.60249
1.54405
1.50397
1.29183
1.14649
1.03844
0.962968
0.901228
0.857577
0.819705
0.792581
0.770264
0.753826
0.741523
0.732511
0.727234
0.727932
0.731395
0.741401
0.761152
0.80545
0.873575
0.959915
1.04669
1.12977
1.19973
1.25711
1.29929
1.32857
1.34598
1.35135
1.34911
1.34269
1.32836
1.31425
1.29192
1.27542
1.25007
1.23429
1.20797
1.19458
1.1631
1.50373
1.29221
1.14624
1.03959
0.963164
0.903414
0.859052
0.822312
0.794229
0.77268
0.755609
0.74307
0.73321
0.726857
0.722546
0.722694
0.724538
0.728744
0.738138
0.754378
0.779188
0.809421
0.84324
0.876381
0.907227
0.932894
0.953784
0.968003
0.977639
0.98076
0.979684
0.975734
0.970259
0.959002
0.95094
0.93646
0.927627
0.911887
0.903782
0.88458
1.50341
1.29267
1.14586
1.04063
0.963423
0.905169
0.860194
0.824734
0.796218
0.774496
0.757225
0.744126
0.733746
0.726228
0.720604
0.717242
0.715591
0.7158
0.71689
0.719155
0.723939
0.729951
0.738298
0.746705
0.756171
0.76399
0.771659
0.776402
0.780425
0.780999
0.780206
0.777674
0.774478
0.767705
0.763118
0.753881
0.748488
0.738063
0.732618
0.719461
1.50331
1.29279
1.14585
1.04109
0.96394
0.906213
0.861324
0.826481
0.797869
0.775794
0.758414
0.744832
0.734061
0.725697
0.719175
0.714287
0.710676
0.708144
0.706457
0.705081
0.704286
0.703559
0.703238
0.702806
0.702446
0.701648
0.700741
0.698769
0.696993
0.693282
0.690527
0.684974
0.681355
0.674367
0.670102
0.66213
0.657613
0.649053
0.644642
0.63395
1.50333
1.29278
1.14597
1.04132
0.964443
0.906876
0.862323
0.827631
0.799396
0.777006
0.75934
0.745422
0.734235
0.725324
0.718112
0.712307
0.707622
0.703683
0.700488
0.697414
0.694817
0.691841
0.68928
0.685921
0.683098
0.679053
0.675811
0.670907
0.667188
0.661377
0.657217
0.650559
0.646093
0.638738
0.634173
0.626307
0.621859
0.613682
0.609526
0.599491
1.50334
1.29276
1.14607
1.0415
0.964822
0.907368
0.863103
0.828436
0.800646
0.778006
0.760051
0.745868
0.734344
0.725039
0.71735
0.710945
0.705597
0.700856
0.69684
0.692859
0.689419
0.685532
0.68216
0.677939
0.674352
0.669564
0.665651
0.660204
0.655973
0.64987
0.64541
0.638715
0.634168
0.626986
0.622511
0.614972
0.610717
0.602961
0.599035
0.589554
1.50333
1.29277
1.14611
1.04165
0.965091
0.907742
0.863661
0.829045
0.801527
0.778799
0.760604
0.746191
0.734414
0.724822
0.716802
0.710018
0.704239
0.699043
0.694533
0.690091
0.686175
0.681906
0.678142
0.673672
0.669813
0.664929
0.660878
0.655484
0.651238
0.645322
0.640959
0.634567
0.630202
0.623414
0.619175
0.612089
0.608089
0.600815
0.597139
0.588239
1.50332
1.29279
1.14613
1.04176
0.965269
0.90804
0.864003
0.82956
0.802013
0.779554
0.761142
0.746506
0.73453
0.724716
0.716466
0.709433
0.703378
0.697916
0.69311
0.688429
0.684249
0.679816
0.675867
0.671334
0.667383
0.662549
0.658498
0.653269
0.649116
0.643466
0.639266
0.633217
0.629062
0.622663
0.618657
0.611983
0.608219
0.60136
0.597885
0.589474
1.50331
1.29281
1.14615
1.04182
0.965388
0.908223
0.86423
0.829887
0.802329
0.780028
0.7615
0.7467
0.734619
0.724645
0.716274
0.709073
0.702877
0.697248
0.692299
0.687479
0.683182
0.678665
0.674642
0.670104
0.66614
0.661384
0.657377
0.652301
0.648236
0.642801
0.638722
0.632932
0.628923
0.622801
0.618954
0.612567
0.608957
0.602393
0.599057
0.591004
1.50329
1.29283
1.14612
1.04184
0.965487
0.908315
0.864382
0.830045
0.802521
0.780262
0.761709
0.746787
0.734695
0.724601
0.716217
0.708895
0.70268
0.696933
0.691963
0.687045
0.682734
0.678157
0.674135
0.669585
0.665635
0.660921
0.65694
0.651954
0.647927
0.642617
0.638591
0.632937
0.628997
0.62302
0.619257
0.613019
0.609493
0.603076
0.59981
0.591932
1.67559
1.68179
1.67879
1.67052
1.65451
1.63519
1.61369
1.59115
1.56773
1.54414
1.52047
1.49651
1.47213
1.44786
1.42356
1.39953
1.37569
1.35215
1.32897
1.30609
1.28379
1.26178
1.2406
1.21975
1.19998
1.18052
1.16238
1.14449
1.12812
1.11184
1.09733
1.08257
1.06999
1.05654
1.04594
1.03336
1.02489
1.01271
1.00659
0.992658
1.67557
1.68183
1.67879
1.67057
1.65447
1.63539
1.61375
1.5915
1.56788
1.54466
1.52069
1.49699
1.47228
1.44829
1.42362
1.39988
1.37562
1.35236
1.32868
1.30607
1.28317
1.26139
1.23957
1.21892
1.19849
1.1792
1.16042
1.14263
1.12572
1.10944
1.09453
1.07967
1.06677
1.05317
1.04236
1.02964
1.02104
1.00873
1.00253
0.988516
1.67556
1.68192
1.6789
1.6708
1.6546
1.6358
1.61402
1.59214
1.56832
1.54557
1.52136
1.49787
1.4729
1.44913
1.42417
1.40062
1.37601
1.35286
1.32873
1.30611
1.28265
1.2608
1.23829
1.21745
1.19626
1.17672
1.15719
1.13915
1.12153
1.10501
1.08945
1.07433
1.06092
1.04702
1.03585
1.02282
1.01399
1.00141
0.995052
0.980848
1.67555
1.68206
1.67907
1.67105
1.65492
1.6364
1.61457
1.59306
1.56917
1.54699
1.52257
1.49928
1.47413
1.45059
1.42546
1.40211
1.37729
1.35423
1.32975
1.30701
1.28301
1.26083
1.23766
1.2164
1.19446
1.17444
1.15407
1.13544
1.11695
1.09983
1.08346
1.06781
1.05373
1.03933
1.02766
1.01418
1.00502
0.992046
0.985507
0.970992
1.67556
1.68224
1.67931
1.6714
1.65545
1.63714
1.61551
1.59423
1.57071
1.54879
1.52437
1.50134
1.47623
1.45305
1.42802
1.40508
1.38032
1.35755
1.33294
1.3102
1.28582
1.26334
1.23955
1.21775
1.19503
1.17432
1.15314
1.13384
1.11458
1.0968
1.07969
1.06339
1.04865
1.03365
1.02143
1.00742
0.997867
0.984419
0.977691
0.962758
1.67559
1.68246
1.67962
1.67185
1.65623
1.63799
1.6169
1.59569
1.57304
1.55116
1.52712
1.50436
1.47977
1.45718
1.43281
1.41071
1.38663
1.36471
1.3405
1.31825
1.29393
1.27158
1.2476
1.22573
1.20271
1.18179
1.16021
1.14057
1.12084
1.10265
1.08509
1.06837
1.05319
1.03775
1.02511
1.01066
1.00079
0.986938
0.980034
0.964786
1.67563
1.6827
1.67998
1.67238
1.65714
1.63907
1.61867
1.59769
1.57614
1.55428
1.5312
1.50874
1.4856
1.46382
1.44139
1.42076
1.39884
1.3788
1.35632
1.33577
1.31295
1.29233
1.26995
1.24986
1.22856
1.20953
1.18959
1.17155
1.15304
1.13592
1.11908
1.10295
1.08811
1.07296
1.06045
1.04617
1.03634
1.02265
1.01586
1.00099
1.67553
1.68301
1.68035
1.67298
1.65787
1.64075
1.62052
1.60084
1.57962
1.5587
1.53662
1.51542
1.49456
1.4746
1.4561
1.43819
1.42157
1.40519
1.38801
1.37259
1.35614
1.34255
1.32822
1.3166
1.30379
1.29283
1.28055
1.26946
1.25717
1.24555
1.23298
1.22074
1.20861
1.19607
1.18522
1.17283
1.16403
1.15194
1.14593
1.13294
1.67524
1.68341
1.68073
1.67367
1.65862
1.6429
1.62284
1.60493
1.58412
1.56511
1.54381
1.5261
1.50761
1.49268
1.47997
1.46906
1.46244
1.4553
1.45408
1.45636
1.46209
1.47355
1.48579
1.50062
1.51334
1.52573
1.53449
1.5414
1.54467
1.54424
1.54206
1.53739
1.53067
1.52232
1.51416
1.50368
1.49585
1.4842
1.47787
1.46359
1.67506
1.68379
1.68121
1.67451
1.66032
1.64455
1.62715
1.60823
1.59113
1.57209
1.55501
1.54089
1.52765
1.52155
1.51992
1.52431
1.53648
1.56355
1.60962
1.67395
1.7482
1.82635
1.90399
1.97748
2.04347
2.10185
2.1511
2.18988
2.21829
2.23613
2.24412
2.24314
2.23832
2.22749
2.21423
2.19485
2.17912
2.15445
2.13959
2.1052
1.67514
1.68413
1.68182
1.67553
1.66221
1.64691
1.63219
1.61269
1.6011
1.58025
1.57274
1.56051
1.5615
1.56731
1.58256
1.6208
1.69992
1.85181
2.04522
2.26284
2.47877
2.69129
2.88896
3.0725
3.23329
3.36844
3.4741
3.53919
3.58071
3.5803
3.56794
3.53848
3.49415
3.43944
3.38392
3.31814
3.2627
3.18733
3.14159
3.04188
1.67524
1.6846
1.68255
1.67675
1.66287
1.65283
1.63463
1.62294
1.60863
1.59546
1.59319
1.59431
1.60666
1.6323
1.69639
1.84452
2.17827
2.6488
3.14939
3.64471
4.12505
4.57522
4.97476
5.31048
5.54491
5.70414
5.74242
5.7111
5.62701
5.49078
5.33804
5.17898
5.02157
4.86574
4.71969
4.57187
4.44389
4.2948
4.20079
4.0122
1.67607
1.6848
1.68339
1.67796
1.6655
1.65673
1.63815
1.63225
1.61635
1.61813
1.62073
1.63434
1.66912
1.74271
1.96722
2.45124
3.47739
4.51194
5.58748
6.59284
7.44847
8.10771
8.55219
8.73857
8.68532
8.49833
8.13172
7.73157
7.35346
7.00691
6.69564
6.41602
6.16432
5.93162
5.7191
5.51396
5.33064
5.13485
4.99202
4.75472
1.67779
1.68435
1.68422
1.67745
1.6712
1.65745
1.64774
1.64037
1.63412
1.64213
1.65197
1.68857
1.7625
1.96346
2.72768
3.94865
6.36966
8.5067
10.4546
11.7264
12.2607
12.1929
11.9024
11.3597
10.6105
9.7793
8.99561
8.35005
7.84407
7.45189
7.13627
6.86697
6.62599
6.40111
6.1887
5.97949
5.7845
5.5814
5.41567
5.18175
1.67763
1.68435
1.68456
1.67808
1.67313
1.65938
1.65656
1.64911
1.65325
1.66512
1.69056
1.76138
1.90411
2.44114
4.36848
7.03396
12.4971
15.5166
16.054
15.6398
14.7965
13.8131
12.7914
11.6643
10.1198
8.86304
7.98377
7.47829
7.19998
7.01774
6.86027
6.70355
6.54286
6.37531
6.20651
6.03289
5.86394
5.68425
5.52836
5.33608
1.67581
1.68509
1.68441
1.67965
1.67446
1.66345
1.66119
1.66047
1.66951
1.68805
1.73676
1.84075
2.11085
3.27162
7.24908
12.3809
20.3011
19.7472
17.6106
15.769
14.3043
13.05
11.8581
10.4679
7.83124
6.58385
6.08727
6.02956
6.10982
6.20729
6.25091
6.24328
6.19817
6.11348
6.00538
5.87722
5.74375
5.59477
5.46707
5.31962
1.67525
1.68525
1.68441
1.6807
1.67532
1.66718
1.66728
1.67032
1.68381
1.71181
1.7794
1.9123
2.32564
4.06901
9.17015
15.4624
4.89835
4.43919
4.5209
4.85894
5.2055
5.47403
5.64491
5.73711
5.76738
5.75097
5.70061
5.62273
5.53158
5.42217
5.33506
5.23368
1.67565
1.68506
1.68451
1.68078
1.67664
1.6708
1.67232
1.67815
1.6961
1.73331
1.81028
1.96887
2.44354
4.38024
9.44614
14.0338
3.63961
3.48376
3.7588
4.20243
4.62609
4.95663
5.18784
5.33818
5.41983
5.44893
5.43899
5.39884
5.33783
5.26023
5.20454
5.13361
1.67521
1.68512
1.68437
1.6811
1.67704
1.67308
1.67578
1.68339
1.70607
1.74668
1.83496
2.00646
2.54404
4.54031
9.15451
12.0089
3.15352
3.14113
3.45985
3.89895
4.31457
4.65524
4.90621
5.08349
5.19437
5.24864
5.26292
5.24592
5.20481
5.14665
5.11034
5.058
1.67438
1.68503
1.68422
1.68183
1.67688
1.67481
1.67748
1.68643
1.70881
1.75421
1.84195
2.02305
2.5665
4.58687
8.97923
11.0354
2.98301
3.03925
3.36436
3.78739
4.18353
4.52246
4.77663
4.96442
5.08655
5.15289
5.17697
5.17075
5.13926
5.09026
5.06245
5.01863
1.67438
1.68503
1.68422
1.68183
1.67688
1.67481
1.67748
1.68642
1.70883
1.75417
1.84233
2.02229
2.56705
4.58657
8.97929
11.0354
2.98299
3.03924
3.36434
3.78737
4.1835
4.52242
4.77659
4.96438
5.0865
5.15284
5.17692
5.17071
5.13921
5.09022
5.06241
5.01858
1.67521
1.68513
1.68437
1.6811
1.67705
1.67308
1.67578
1.6834
1.70607
1.74674
1.8348
2.00709
2.54339
4.54063
9.1544
12.0089
3.15346
3.14109
3.45979
3.89887
4.31447
4.65513
4.90608
5.08335
5.19423
5.2485
5.26278
5.24577
5.20467
5.14651
5.1102
5.05786
1.67565
1.68506
1.68451
1.68078
1.67664
1.6708
1.67233
1.67809
1.69635
1.73261
1.8114
1.96707
2.445
4.37974
9.44621
14.0338
3.63946
3.48363
3.75866
4.20226
4.6259
4.95642
5.18761
5.33794
5.41959
5.44868
5.43873
5.39858
5.33757
5.25998
5.20429
5.13337
1.67525
1.68525
1.68441
1.6807
1.67532
1.66718
1.66728
1.6703
1.68391
1.71158
1.77963
1.91128
2.32769
4.06491
9.17102
15.4625
4.89799
4.43886
4.52059
4.85864
5.20519
5.47371
5.64457
5.73677
5.76702
5.75061
5.70025
5.62236
5.53122
5.42181
5.33471
5.23334
1.67581
1.68509
1.68441
1.67965
1.67446
1.66345
1.66119
1.66048
1.66956
1.68787
1.7371
1.84007
2.11182
3.27163
7.24901
12.3807
20.3015
19.7476
17.6106
15.7686
14.3036
13.0492
11.8572
10.467
7.83051
6.58324
6.08673
6.02908
6.10937
6.20686
6.25048
6.24285
6.19773
6.11303
6.00492
5.87676
5.74329
5.5943
5.46661
5.31916
1.67763
1.68435
1.68456
1.67808
1.67313
1.65938
1.65656
1.64911
1.65328
1.66493
1.69092
1.76144
1.90444
2.44128
4.36863
7.03415
12.4971
15.517
16.0543
15.6399
14.7964
13.8128
12.791
11.6637
10.1192
8.86246
7.98322
7.47779
7.19951
7.01729
6.85983
6.7031
6.54239
6.37481
6.206
6.03237
5.8634
5.68371
5.52782
5.33554
1.67779
1.68435
1.68422
1.67745
1.67121
1.65746
1.64773
1.64038
1.63412
1.64213
1.65205
1.6885
1.76298
1.96305
2.72774
3.94895
6.36989
8.50721
10.4553
11.7271
12.2612
12.1933
11.9025
11.3597
10.6104
9.77909
8.99531
8.34972
7.84371
7.4515
7.13585
6.86652
6.62551
6.40059
6.18815
5.97891
5.7839
5.58079
5.41505
5.18111
1.67607
1.6848
1.6834
1.67796
1.6655
1.65673
1.63815
1.63226
1.61635
1.61814
1.62077
1.63415
1.6699
1.74109
1.96953
2.44795
3.47776
4.51133
5.58691
6.59248
7.44831
8.10774
8.55231
8.73865
8.68536
8.49828
8.13156
7.73133
7.35315
7.00653
6.69519
6.41551
6.16375
5.931
5.71844
5.51326
5.32992
5.13409
4.99126
4.75393
1.67524
1.6846
1.68255
1.67675
1.66287
1.65284
1.63463
1.62295
1.60862
1.59547
1.5932
1.59429
1.60705
1.6309
1.69975
1.83965
2.18015
2.64816
3.14807
3.64321
4.12353
4.57377
4.97343
5.30928
5.54381
5.70317
5.74155
5.71025
5.62618
5.48994
5.33718
5.1781
5.02066
4.86479
4.71872
4.57087
4.44288
4.29377
4.19976
4.01115
1.67514
1.68413
1.68182
1.67553
1.6622
1.64691
1.63219
1.6127
1.6011
1.58026
1.57274
1.56052
1.56158
1.56685
1.58404
1.62028
1.70055
1.85151
2.04432
2.2615
2.47714
2.68945
2.887
3.07048
3.23126
3.36643
3.47215
3.53728
3.57891
3.57853
3.56622
3.53683
3.49253
3.43786
3.38237
3.31661
3.26119
3.18584
3.14012
3.04044
1.67506
1.68379
1.68121
1.67451
1.66031
1.64455
1.62715
1.60823
1.59113
1.57209
1.55502
1.54088
1.52767
1.52151
1.52006
1.52424
1.5369
1.56345
1.6094
1.67343
1.74737
1.82524
1.90265
1.97594
2.04178
2.10005
2.14923
2.18796
2.21634
2.23416
2.24215
2.24118
2.23637
2.22557
2.21233
2.19297
2.17727
2.15263
2.13779
2.10346
1.67524
1.68341
1.68073
1.67367
1.65862
1.6429
1.62284
1.60493
1.58412
1.56511
1.54381
1.5261
1.50762
1.49269
1.47997
1.4691
1.46248
1.45537
1.45403
1.45625
1.46186
1.47315
1.48521
1.49989
1.51245
1.52473
1.53335
1.5402
1.54334
1.54288
1.54066
1.53593
1.52918
1.5208
1.51263
1.50213
1.4943
1.48265
1.47633
1.46206
1.67553
1.68301
1.68035
1.67298
1.65787
1.64075
1.62052
1.60084
1.57962
1.5587
1.53662
1.51543
1.49456
1.47462
1.4561
1.43821
1.42158
1.40522
1.38802
1.37258
1.35609
1.34245
1.32805
1.31635
1.30345
1.29241
1.28004
1.26888
1.25652
1.24484
1.23222
1.21992
1.20775
1.19517
1.18427
1.17186
1.16303
1.15091
1.1449
1.13188
1.67563
1.6827
1.67998
1.67238
1.65714
1.63907
1.61867
1.59769
1.57614
1.55428
1.5312
1.50874
1.4856
1.46383
1.4414
1.42077
1.39885
1.37881
1.35632
1.33578
1.31294
1.29231
1.26991
1.24979
1.22845
1.20938
1.1894
1.17132
1.15276
1.1356
1.11872
1.10255
1.08767
1.07248
1.05994
1.04563
1.03577
1.02206
1.01525
1.00035
1.67559
1.68246
1.67962
1.67185
1.65623
1.63799
1.6169
1.59569
1.57304
1.55116
1.52712
1.50436
1.47977
1.45718
1.43281
1.41071
1.38663
1.36471
1.3405
1.31825
1.29393
1.27157
1.24758
1.2257
1.20266
1.18173
1.16014
1.14047
1.12072
1.10251
1.08493
1.06818
1.05298
1.03751
1.02486
1.01038
1.00049
0.986615
0.979698
0.964419
1.67556
1.68224
1.67931
1.6714
1.65544
1.63714
1.61551
1.59424
1.57071
1.54879
1.52437
1.50134
1.47623
1.45305
1.42802
1.40508
1.38032
1.35755
1.33294
1.3102
1.28581
1.26332
1.23953
1.21773
1.19501
1.17428
1.1531
1.13379
1.11452
1.09672
1.07961
1.0633
1.04854
1.03353
1.0213
1.00728
0.997711
0.984247
0.97751
0.962557
1.67555
1.68206
1.67907
1.67105
1.65492
1.6364
1.61457
1.59307
1.56917
1.54699
1.52257
1.49928
1.47413
1.45059
1.42546
1.40211
1.37729
1.35423
1.32974
1.307
1.28301
1.26082
1.23765
1.21638
1.19444
1.17441
1.15405
1.13541
1.11691
1.09978
1.08341
1.06775
1.05367
1.03926
1.02758
1.0141
1.00493
0.991947
0.985402
0.970877
1.67556
1.68192
1.6789
1.6708
1.6546
1.6358
1.61402
1.59214
1.56832
1.54557
1.52136
1.49787
1.4729
1.44913
1.42417
1.40061
1.376
1.35286
1.32873
1.30611
1.28264
1.26079
1.23828
1.21743
1.19624
1.1767
1.15716
1.13913
1.1215
1.10498
1.08941
1.0743
1.06088
1.04697
1.0358
1.02277
1.01394
1.00135
0.994988
0.980778
1.67557
1.68183
1.67879
1.67057
1.65447
1.63539
1.61375
1.59151
1.56788
1.54466
1.52069
1.49699
1.47228
1.44829
1.42362
1.39988
1.37561
1.35236
1.32868
1.30606
1.28316
1.26138
1.23956
1.21891
1.19847
1.17918
1.1604
1.14261
1.1257
1.10942
1.09451
1.07965
1.06674
1.05314
1.04233
1.0296
1.021
1.00869
1.00249
0.988468
1.67559
1.68179
1.67879
1.67052
1.65451
1.63519
1.61369
1.59115
1.56773
1.54414
1.52047
1.49651
1.47213
1.44786
1.42356
1.39953
1.37568
1.35215
1.32897
1.30609
1.28378
1.26178
1.2406
1.21974
1.19997
1.18051
1.16237
1.14447
1.12811
1.11182
1.09731
1.08255
1.06997
1.05651
1.04591
1.03333
1.02486
1.01267
1.00655
0.992618
1.66129
1.66726
1.67279
1.67757
1.67969
1.67914
1.67721
1.67311
1.66711
1.65959
1.6507
1.64082
1.62981
1.61796
1.60515
1.59155
1.57709
1.56187
1.54587
1.52917
1.51189
1.49409
1.47602
1.45769
1.43945
1.42119
1.40338
1.3857
1.36879
1.35209
1.3364
1.32088
1.30667
1.29224
1.27983
1.26611
1.25593
1.24232
1.23502
1.21917
1.66138
1.66721
1.6729
1.67769
1.67987
1.67935
1.67747
1.67348
1.66748
1.66012
1.65127
1.64157
1.6306
1.61896
1.60618
1.59281
1.57835
1.56334
1.54727
1.53073
1.51329
1.4956
1.47728
1.45901
1.44046
1.42223
1.40405
1.38639
1.3691
1.35237
1.33637
1.32073
1.30628
1.29168
1.27911
1.26523
1.25493
1.24117
1.23379
1.21779
1.66143
1.66728
1.67306
1.67789
1.68022
1.67977
1.67798
1.67422
1.66827
1.66121
1.65251
1.64311
1.63234
1.62106
1.6085
1.59551
1.58123
1.56653
1.55053
1.53418
1.51665
1.499
1.48045
1.46209
1.44318
1.42476
1.40615
1.38824
1.37049
1.35347
1.33702
1.32106
1.30623
1.29131
1.27842
1.26423
1.25369
1.23963
1.2321
1.2158
1.66148
1.66739
1.67332
1.67819
1.68075
1.6804
1.67877
1.67535
1.66955
1.66291
1.65453
1.64559
1.63521
1.62451
1.61242
1.60006
1.58624
1.57208
1.55638
1.54035
1.52289
1.5053
1.48659
1.46809
1.44884
1.43013
1.41106
1.39274
1.37447
1.35698
1.33999
1.32356
1.30822
1.29283
1.27951
1.26488
1.25401
1.23954
1.23181
1.21509
1.66155
1.66753
1.67367
1.67858
1.68149
1.68128
1.67988
1.67684
1.67145
1.6653
1.65746
1.64924
1.63953
1.62972
1.61852
1.60719
1.59431
1.58112
1.56614
1.55076
1.53368
1.51641
1.49776
1.47927
1.45984
1.44092
1.4215
1.40284
1.38411
1.3662
1.3487
1.33179
1.31594
1.30006
1.28627
1.27115
1.25992
1.24499
1.23702
1.21982
1.66164
1.6677
1.6741
1.67908
1.68243
1.6824
1.68133
1.67879
1.67403
1.66855
1.66155
1.65433
1.64579
1.63739
1.62771
1.61808
1.60695
1.59554
1.58202
1.56802
1.552
1.53571
1.51779
1.50001
1.48109
1.46265
1.4435
1.42506
1.40636
1.38844
1.37079
1.3537
1.33759
1.32139
1.30728
1.29182
1.28029
1.26499
1.25684
1.23931
1.66173
1.66794
1.67453
1.67979
1.68333
1.68397
1.68321
1.68124
1.6774
1.67281
1.66713
1.66129
1.6547
1.64841
1.64141
1.63462
1.62671
1.61837
1.60778
1.59673
1.58352
1.57018
1.55508
1.54015
1.5239
1.50808
1.49124
1.4749
1.45786
1.44131
1.42462
1.4083
1.39264
1.37691
1.36306
1.34793
1.33658
1.32164
1.31374
1.29689
1.66178
1.66826
1.67493
1.6807
1.68425
1.68592
1.68553
1.68429
1.68164
1.67845
1.67455
1.67087
1.66726
1.66431
1.66169
1.65964
1.65755
1.65497
1.65088
1.64695
1.64173
1.637
1.63108
1.62558
1.61821
1.61068
1.6013
1.59174
1.58057
1.56933
1.55705
1.54464
1.53227
1.51977
1.50844
1.49609
1.48669
1.47447
1.46806
1.45456
1.66179
1.66864
1.67532
1.68173
1.68533
1.68812
1.68842
1.6881
1.68701
1.68594
1.68427
1.68431
1.68497
1.68726
1.69146
1.69794
1.70658
1.71698
1.73
1.74674
1.76584
1.78658
1.80644
1.82582
1.8432
1.85904
1.87176
1.88251
1.8894
1.89434
1.89519
1.89444
1.89222
1.88767
1.88244
1.87526
1.8694
1.86047
1.8553
1.84368
1.66185
1.66892
1.67592
1.68263
1.68705
1.69016
1.6922
1.69295
1.6941
1.6952
1.69761
1.70189
1.70867
1.72112
1.73584
1.75817
1.79151
1.84081
1.9065
1.98448
2.0678
2.15483
2.24295
2.33032
2.41391
2.49153
2.56099
2.62016
2.66655
2.70231
2.72446
2.73824
2.74035
2.73744
2.73026
2.71585
2.70247
2.68041
2.66577
2.63224
1.66205
1.66905
1.67675
1.68349
1.68916
1.6925
1.69669
1.69869
1.70336
1.70695
1.71596
1.72497
1.74447
1.76813
1.80272
1.86269
1.97848
2.15568
2.36287
2.596
2.84281
3.09987
3.35463
3.60331
3.83005
4.02562
4.18261
4.29029
4.35832
4.38455
4.37771
4.35551
4.31164
4.25431
4.19238
4.11999
4.05401
3.96938
3.91408
3.79965
1.66226
1.66918
1.67759
1.68465
1.69107
1.69576
1.70158
1.70567
1.71434
1.72174
1.73906
1.75623
1.79329
1.83399
1.92371
2.11342
2.50566
2.99235
3.55273
4.15404
4.77891
5.38945
5.94019
6.41108
6.7455
6.96482
7.04174
7.014
6.93064
6.77941
6.60393
6.41888
6.2337
6.05004
5.87485
5.70004
5.54154
5.36795
5.24239
5.02753
1.66262
1.66916
1.67863
1.68561
1.69341
1.69927
1.70689
1.71405
1.72657
1.73994
1.76713
1.79937
1.85162
1.95099
2.23561
2.81848
3.9038